# vtk DataFile Version 2.0
Unstructured Grid Example
ASCII
DATASET UNSTRUCTURED_GRID
POINTS 4867 float
0.000000 0.000000 0.000000 
-0.000000 -0.000000 0.104188 
-0.000000 -0.005113 1.072216 
0.000000 -0.000000 1.171587 
-0.000000 -0.000000 1.285542 
-0.000000 -0.000000 1.399445 
-0.000000 -0.000000 1.510624 
-0.000000 -0.000000 1.617889 
-0.000000 -0.000000 1.719806 
-0.000000 -0.000000 1.815394 
-0.000000 -0.000000 1.911024 
-0.000000 -0.000000 2.008724 
-0.000000 -0.000000 2.106839 
-0.000000 -0.000000 2.205448 
-0.000000 -0.000000 2.303759 
-0.000000 -0.000000 2.401676 
-0.000000 -0.000000 2.499092 
-0.004241 -0.000000 2.584780 
-0.000000 0.099937 -0.000000 
-0.000000 0.099533 0.100000 
0.000000 0.097253 1.071483 
0.000000 0.093689 1.164575 
0.000000 0.101880 1.254864 
0.000000 0.101861 1.357531 
0.000000 0.101453 1.468125 
0.000000 0.100639 1.582466 
0.000000 0.099169 1.698156 
0.000000 0.099141 1.811171 
0.000000 0.098938 1.912557 
0.000000 0.101155 2.010162 
0.000000 0.098432 2.107849 
0.000000 0.101101 2.206553 
0.000000 0.099288 2.304103 
0.000000 0.099827 2.402783 
0.000000 0.100278 2.501677 
-0.000000 0.099238 2.601275 
-0.000000 0.200325 -0.000000 
-0.000000 0.199285 0.100000 
-0.000000 0.194999 1.070091 
0.000000 0.193569 1.167037 
0.000000 0.202743 1.282359 
0.000000 0.202419 1.399627 
0.000000 0.201476 1.514354 
0.000000 0.200586 1.624458 
0.000000 0.199214 1.726546 
0.000000 0.200637 1.818852 
0.000000 0.197773 1.912549 
0.000000 0.201732 2.010981 
0.000000 0.198204 2.109559 
0.000000 0.200614 2.208300 
0.000000 0.199592 2.307122 
0.000000 0.199847 2.406454 
0.000000 0.201150 2.505509 
-0.000000 0.198916 2.604482 
-0.000000 0.300149 -0.000000 
-0.000000 0.299303 0.100000 
-0.000000 0.292652 1.068916 
0.000000 0.294208 1.161359 
0.000000 0.301273 1.249671 
0.000000 0.303341 1.353376 
0.000000 0.302014 1.466352 
0.000000 0.300938 1.582666 
0.000000 0.299856 1.699647 
0.000000 0.300161 1.811994 
0.000000 0.298971 1.912767 
0.000000 0.301849 2.010126 
0.000000 0.298030 2.108608 
0.000000 0.299433 2.206967 
0.000000 0.300359 2.305726 
0.000000 0.300230 2.404510 
0.000000 0.300490 2.504677 
-0.000000 0.299465 2.606033 
-0.000000 0.399111 -0.000000 
-0.000000 0.400060 0.100000 
0.000000 0.391715 1.067156 
0.000000 0.397226 1.161872 
0.000000 0.402682 1.276412 
0.000000 0.402412 1.396062 
0.000000 0.401041 1.512694 
0.000000 0.400372 1.623800 
0.000000 0.400140 1.725954 
0.000000 0.399419 1.818800 
0.000000 0.399284 1.911946 
0.000000 0.401503 2.011343 
0.000000 0.397753 2.110421 
0.000000 0.399741 2.209418 
0.000000 0.400046 2.308562 
0.000000 0.401120 2.408186 
0.000000 0.398990 2.508453 
-0.000000 0.400056 2.607328 
-0.000000 0.498663 -0.000000 
-0.000000 0.501288 0.100000 
0.000000 0.498621 1.066605 
0.000000 0.492800 1.157132 
0.000000 0.501288 1.248892 
0.000000 0.502563 1.351885 
0.000000 0.500920 1.465157 
0.000000 0.500425 1.581739 
0.000000 0.500305 1.699275 
0.000000 0.499237 1.813426 
0.000000 0.499737 1.914512 
0.000000 0.501194 2.012418 
0.000000 0.498007 2.111948 
0.000000 0.499615 2.210909 
0.000000 0.499291 2.309558 
0.000000 0.501972 2.408221 
0.000000 0.498697 2.507961 
-0.000000 0.500821 2.608283 
-0.000000 0.598178 -0.000000 
-0.000000 0.601702 0.100000 
-0.000000 0.597736 1.065298 
0.000000 0.594603 1.161641 
0.000000 0.602772 1.276381 
0.000000 0.601132 1.396263 
0.000000 0.600430 1.512503 
0.000000 0.600327 1.623611 
0.000000 0.600274 1.726504 
0.000000 0.598616 1.819126 
0.000000 0.599377 1.912773 
0.000000 0.600780 2.011995 
0.000000 0.599044 2.109855 
0.000000 0.599628 2.208359 
0.000000 0.598689 2.308597 
0.000000 0.601862 2.409075 
0.000000 0.598479 2.508915 
-0.000000 0.601461 2.609002 
-0.000000 0.698345 -0.000000 
-0.000000 0.701650 0.100000 
-0.000000 0.699142 1.064558 
0.000000 0.696798 1.154671 
0.000000 0.702794 1.242263 
0.000000 0.700718 1.349647 
0.000000 0.700380 1.463741 
0.000000 0.700319 1.580332 
0.000000 0.700407 1.698072 
0.000000 0.699643 1.813180 
0.000000 0.699149 1.915084 
0.000000 0.700336 2.012920 
0.000000 0.699345 2.112203 
0.000000 0.699766 2.211993 
0.000000 0.698034 2.310815 
0.000000 0.701716 2.409931 
0.000000 0.698373 2.509682 
-0.000000 0.701599 2.609727 
-0.000000 0.798433 -0.000000 
-0.000000 0.801602 0.100000 
0.000000 0.800789 1.064274 
0.000000 0.799278 1.158205 
0.000000 0.801097 1.278293 
0.000000 0.800239 1.396732 
0.000000 0.800295 1.512205 
0.000000 0.800240 1.623430 
0.000000 0.800046 1.727323 
0.000000 0.799632 1.820919 
0.000000 0.798683 1.915484 
0.000000 0.799713 2.014640 
0.000000 0.799319 2.113114 
0.000000 0.799817 2.211105 
0.000000 0.798120 2.310370 
0.000000 0.802230 2.409641 
0.000000 0.798139 2.509950 
-0.000000 0.801561 2.610165 
-0.000000 0.898437 -0.000000 
-0.000000 0.901552 0.100000 
-0.000000 0.904497 1.064113 
0.000000 0.903635 1.152912 
0.000000 0.900119 1.239933 
0.000000 0.900121 1.349154 
0.000000 0.900348 1.463028 
0.000000 0.900287 1.579491 
0.000000 0.900233 1.696933 
0.000000 0.899966 1.811166 
0.000000 0.899166 1.913231 
0.000000 0.899625 2.010533 
0.000000 0.899924 2.109623 
0.000000 0.899816 2.209281 
0.000000 0.897979 2.309204 
0.000000 0.902121 2.409785 
0.000000 0.898179 2.510010 
-0.000000 0.901557 2.610599 
-0.000000 0.998397 -0.000000 
-0.000000 1.001582 0.100000 
0.000000 1.009347 1.063966 
0.000000 1.006507 1.157196 
0.000000 0.998061 1.276159 
0.000000 1.000029 1.395350 
0.000000 1.000263 1.511288 
0.000000 1.000001 1.623030 
0.000000 1.000041 1.727810 
0.000000 1.000053 1.822177 
0.000000 0.999585 1.916562 
0.000000 0.999703 2.015442 
0.000000 1.000110 2.114735 
0.000000 0.999811 2.213560 
0.000000 0.998199 2.311634 
0.000000 1.002496 2.410350 
0.000000 0.997789 2.510443 
-0.000000 1.001656 2.610907 
-0.000000 1.098381 -0.000000 
-0.000000 1.101636 0.100000 
-0.000000 1.111316 1.063608 
0.000000 1.112366 1.156881 
0.000000 1.098752 1.243379 
0.000000 1.098843 1.347082 
0.000000 1.100054 1.461527 
0.000000 1.099954 1.578526 
0.000000 1.099521 1.696535 
0.000000 1.100265 1.812003 
0.000000 1.099889 1.914535 
0.000000 1.099947 2.011149 
0.000000 1.100152 2.109731 
0.000000 1.100476 2.209503 
0.000000 1.098535 2.309681 
0.000000 1.102235 2.410532 
0.000000 1.097628 2.510982 
-0.000000 1.101663 2.611088 
-0.000000 1.198460 -0.000000 
-0.000000 1.201174 0.100000 
-0.000000 1.212510 1.063593 
0.000000 1.213907 1.161252 
0.000000 1.198166 1.272732 
0.000000 1.198391 1.393693 
0.000000 1.199820 1.510811 
0.000000 1.199680 1.622781 
0.000000 1.199388 1.726700 
0.000000 1.200605 1.820038 
0.000000 1.200160 1.914409 
0.000000 1.199953 2.014443 
0.000000 1.200462 2.113920 
0.000000 1.201183 2.212133 
0.000000 1.197621 2.311021 
0.000000 1.202335 2.411069 
0.000000 1.197647 2.511104 
-0.000000 1.201722 2.611202 
-0.000000 1.298708 -0.000000 
-0.000000 1.301107 0.100000 
-0.000000 1.311194 1.063468 
0.000000 1.312416 1.157295 
0.000000 1.308215 1.250519 
0.000000 1.296259 1.349967 
0.000000 1.298873 1.463787 
0.000000 1.299588 1.580838 
0.000000 1.299426 1.698614 
0.000000 1.299855 1.813190 
0.000000 1.301240 1.914955 
0.000000 1.299167 2.011724 
0.000000 1.300553 2.111816 
0.000000 1.301273 2.211404 
0.000000 1.297850 2.311314 
0.000000 1.302278 2.411133 
0.000000 1.297968 2.511338 
-0.000000 1.301566 2.611252 
-0.000000 1.399041 -0.000000 
-0.000000 1.401092 0.100000 
0.000000 1.410367 1.063907 
0.000000 1.413502 1.161306 
0.000000 1.404491 1.278765 
0.000000 1.397436 1.396502 
0.000000 1.399507 1.513018 
0.000000 1.400191 1.623932 
0.000000 1.399952 1.726399 
0.000000 1.400203 1.819687 
0.000000 1.401103 1.914581 
0.000000 1.399122 2.014467 
0.000000 1.401563 2.112668 
0.000000 1.400277 2.211258 
0.000000 1.398400 2.310966 
0.000000 1.402144 2.410426 
0.000000 1.398430 2.510702 
-0.000000 1.401360 2.611250 
-0.000000 1.499201 -0.000000 
-0.000000 1.500901 0.100000 
-0.000000 1.508436 1.063275 
0.000000 1.510508 1.157293 
0.000000 1.508374 1.249599 
0.000000 1.499993 1.355586 
0.000000 1.498728 1.467684 
0.000000 1.500420 1.584069 
0.000000 1.500755 1.701327 
0.000000 1.500356 1.814103 
0.000000 1.500315 1.915167 
0.000000 1.499496 2.012131 
0.000000 1.501977 2.110802 
0.000000 1.500420 2.210333 
0.000000 1.498890 2.309940 
0.000000 1.501701 2.410832 
0.000000 1.498945 2.511522 
-0.000000 1.501483 2.611193 
-0.000000 1.599075 -0.000000 
-0.000000 1.601265 0.100000 
0.000000 1.610048 1.063814 
0.000000 1.607828 1.161595 
0.000000 1.603598 1.283539 
0.000000 1.600203 1.401158 
0.000000 1.600664 1.515127 
0.000000 1.601705 1.624741 
0.000000 1.601831 1.725825 
0.000000 1.599832 1.818188 
0.000000 1.600130 1.913738 
0.000000 1.600304 2.013330 
0.000000 1.602017 2.112059 
0.000000 1.600334 2.210892 
0.000000 1.599106 2.310470 
0.000000 1.600967 2.410931 
0.000000 1.600122 2.510791 
-0.000000 1.601282 2.611097 
-0.000000 1.698806 -0.000000 
-0.000000 1.701684 0.100000 
-0.000000 1.707795 1.063610 
0.000000 1.710162 1.153657 
0.000000 1.702174 1.242438 
0.000000 1.701429 1.352229 
0.000000 1.701838 1.465066 
0.000000 1.702597 1.580986 
0.000000 1.703269 1.698500 
0.000000 1.700451 1.813083 
0.000000 1.700149 1.915187 
0.000000 1.700693 2.012719 
0.000000 1.701391 2.112072 
0.000000 1.700149 2.212145 
0.000000 1.699111 2.311589 
0.000000 1.701383 2.410762 
0.000000 1.700838 2.510554 
-0.000000 1.700824 2.610982 
-0.000000 1.799030 -0.000000 
-0.000000 1.801593 0.100000 
0.000000 1.807991 1.063625 
0.000000 1.808459 1.160031 
0.000000 1.798610 1.276656 
0.000000 1.802327 1.393037 
0.000000 1.802606 1.508164 
0.000000 1.802771 1.619932 
0.000000 1.802874 1.725667 
0.000000 1.799211 1.819759 
0.000000 1.800114 1.913346 
0.000000 1.800871 2.012232 
0.000000 1.802122 2.110425 
0.000000 1.800806 2.208853 
0.000000 1.798986 2.309511 
0.000000 1.801556 2.410785 
0.000000 1.800717 2.511009 
-0.000000 1.800581 2.610892 
-0.000000 1.898927 -0.000000 
-0.000000 1.901754 0.100000 
-0.000000 1.905959 1.063300 
0.000000 1.908549 1.158970 
0.000000 1.899509 1.253084 
0.000000 1.906445 1.346111 
0.000000 1.905392 1.451888 
[...]
POINT_DATA 4867
SCALARS u float 1
LOOKUP_TABLE default
0.000000
0.000000
0.037778
0.037871
0.038010
0.038173
0.038339
0.038492
0.038631
0.038759
0.038892
0.039025
0.039175
0.039333
0.039515
0.039755
0.040076
0.041522
0.000000
0.000000
0.037852
0.037943
0.038031
0.038129
0.038294
0.038454
0.038608
0.038754
0.038882
0.039013
0.039150
0.039293
0.039442
0.039601
0.039801
0.039873
0.000000
0.000000
0.037991
0.038066
0.038118
0.038259
0.038400
0.038532
0.038653
0.038760
0.038869
0.038981
0.039101
0.039216
0.039337
0.039451
0.039519
0.039552
0.000000
0.000000
0.038108
0.038203
0.038248
0.038305
0.038405
0.038518
0.038636
0.038749
0.038850
0.038945
0.039043
0.039139
0.039226
0.039308
0.039364
0.039397
0.000000
0.000000
0.038284
0.038342
0.038320
0.038403
0.038495
0.038587
0.038673
0.038752
0.038831
0.038914
0.038994
0.039071
0.039143
0.039205
0.039251
0.039267
0.000000
0.000000
0.038339
0.038436
0.038406
0.038414
0.038501
0.038582
0.038665
0.038746
0.038818
0.038883
0.038950
0.039013
0.039073
0.039121
0.039159
0.039172
0.000000
0.000000
0.038470
0.038509
0.038477
0.038511
0.038572
0.038634
0.038694
0.038749
0.038804
0.038860
0.038914
0.038965
0.039013
0.039052
0.039085
0.039100
0.000000
0.000000
0.038544
0.038556
0.038534
0.038526
0.038579
0.038633
0.038689
0.038745
0.038795
0.038841
0.038887
0.038929
0.038969
0.038998
0.039018
0.039027
0.000000
0.000000
0.038573
0.038624
0.038546
0.038584
0.038626
0.038669
0.038711
0.038748
0.038788
0.038827
0.038865
0.038899
0.038931
0.038956
0.038976
0.038984
0.000000
0.000000
0.038589
0.038642
0.038605
0.038596
0.038632
0.038669
0.038708
0.038746
0.038781
0.038814
0.038846
0.038876
0.038902
0.038922
0.038933
0.038940
0.000000
0.000000
0.038603
0.038663
0.038600
0.038632
0.038663
0.038694
0.038724
0.038751
0.038779
0.038807
0.038834
0.038859
0.038880
0.038896
0.038902
0.038909
0.000000
0.000000
0.038639
0.038705
0.038663
0.038642
0.038666
0.038693
0.038721
0.038750
0.038776
0.038800
0.038824
0.038846
0.038865
0.038879
0.038884
0.038891
0.000000
0.000000
0.038641
0.038702
0.038643
0.038663
0.038686
0.038709
0.038732
0.038753
0.038775
0.038797
0.038819
0.038838
0.038856
0.038869
0.038873
0.038880
0.000000
0.000000
0.038653
0.038718
0.038665
0.038662
0.038682
0.038704
0.038728
0.038753
0.038775
0.038795
0.038815
0.038834
0.038851
0.038864
0.038868
0.038875
0.000000
0.000000
0.038609
0.038747
0.038664
0.038670
0.038692
0.038714
0.038735
0.038755
0.038775
0.038795
0.038815
0.038833
0.038850
0.038863
0.038868
0.038875
0.000000
0.000000
0.038673
0.038699
0.038675
0.038645
0.038679
0.038705
0.038730
0.038754
0.038775
0.038796
0.038815
0.038835
0.038851
0.038866
0.038873
0.038881
0.000000
0.000000
0.038619
0.038714
0.038667
0.038670
0.038691
0.038714
0.038736
0.038756
0.038776
0.038798
0.038818
0.038838
0.038856
0.038871
0.038883
0.038890
0.000000
0.000000
0.038639
0.038690
0.038656
0.038657
0.038677
0.038702
0.038729
0.038755
0.038778
0.038801
0.038822
0.038843
0.038862
0.038878
0.038892
0.038902
0.000000
0.000000
0.038638
0.038684
0.038621
0.038650
0.038680
0.038708
0.038734
0.038757
0.038781
0.038805
0.038828
0.038850
0.038870
0.038887
0.038898
0.038911
0.000000
0.000000
0.038670
0.038667
0.038628
0.038637
0.038661
0.038689
0.038721
0.038753
0.038783
0.038810
0.038836
0.038861
0.038880
0.038898
0.038912
0.038906
0.000000
0.000000
0.038609
0.038643
0.038617
0.038628
0.038659
0.038692
0.038725
0.038757
0.038788
0.038817
0.038846
0.038873
0.038898
0.038923
0.038937
0.038939
0.000000
0.000000
0.038541
0.038668
0.038565
0.038616
0.038653
0.038688
0.038721
0.038754
0.038790
0.038825
0.038861
0.038894
0.038922
0.038948
0.038957
0.038966
0.000000
0.000000
0.038565
0.038601
0.038556
0.038571
0.038617
0.038663
0.038710
0.038755
0.038796
0.038835
0.038875
0.038914
0.038950
0.038969
0.038982
0.038988
0.000000
0.000000
0.038512
0.038542
0.038492
0.038557
0.038610
0.038659
0.038706
0.038752
0.038801
0.038849
0.038895
0.038941
0.038982
0.039014
0.039034
0.039041
0.000000
0.000000
0.038439
0.038485
0.038458
0.038505
0.038567
0.038632
0.038695
0.038754
0.038810
0.038868
0.038924
0.038978
0.039027
0.039062
0.039078
0.039088
0.000000
0.000000
0.038302
0.038393
0.038409
0.038444
0.038506
0.038581
0.038663
0.038746
0.038822
0.038889
0.038957
0.039022
0.039081
0.039131
0.039157
0.039165
0.000000
0.000000
0.038227
0.038286
0.038306
0.038397
0.038491
0.038584
0.038674
0.038754
0.038834
0.038920
0.039000
0.039081
0.039154
0.039219
0.039257
0.039270
0.000000
0.000000
0.038072
0.038176
0.038206
0.038276
0.038388
0.038510
0.038633
0.038751
0.038854
0.038950
0.039048
0.039145
0.039236
0.039319
0.039388
0.039408
0.000000
0.000000
0.038004
0.038059
0.038097
0.038232
0.038385
0.038525
0.038650
0.038761
0.038870
0.038984
0.039104
0.039221
0.039341
0.039457
0.039544
0.039566
0.000000
0.000000
0.037918
0.037963
0.038013
0.038106
0.038279
0.038447
0.038608
0.038761
0.038891
0.039017
0.039151
0.039291
0.039439
0.039625
0.039773
0.039877
0.000000
0.000000
0.037821
0.037882
0.038005
0.038161
0.038328
0.038485
0.038628
0.038760
0.038895
0.039030
0.039172
0.039338
0.039522
0.039790
0.040165
0.041575
0.000000
0.000000
0.035697
0.037471
0.037781
0.038051
0.038255
0.038430
0.038590
0.038742
0.038885
0.039025
0.039172
0.039336
0.039523
0.039744
0.039993
0.040043
0.000000
0.000000
0.037428
0.037723
0.037951
0.038177
0.038354
0.038506
0.038643
0.038763
0.038882
0.039013
0.039146
0.039290
0.039436
0.039590
0.039728
0.039783
0.000000
0.000000
0.035880
0.037719
0.037948
0.038158
0.038322
0.038471
0.038613
0.038749
0.038869
0.038982
0.039098
0.039214
0.039330
0.039441
0.039546
0.039567
0.000000
0.000000
0.038027
0.037557
0.038227
0.038330
0.038445
0.038557
0.038662
0.038755
0.038849
0.038947
0.039042
0.039141
0.039228
0.039311
0.039390
0.039421
0.000000
0.000000
0.037250
0.038325
0.038225
0.038348
0.038443
0.038543
0.038645
0.038744
0.038832
0.038915
0.038992
0.039071
0.039144
0.039212
0.039272
0.039292
0.000000
0.000000
0.038449
0.038158
0.038335
0.038447
0.038530
0.038610
0.038684
0.038749
0.038816
0.038883
0.038949
0.039012
0.039073
0.039133
0.039182
0.039200
0.000000
0.000000
0.037212
0.037740
0.038457
0.038479
0.038538
0.038605
0.038674
0.038743
0.038804
0.038861
0.038916
0.038968
0.039017
0.039066
0.039107
0.039128
0.000000
0.000000
0.038488
0.038421
0.038487
0.038546
0.038599
0.038652
0.038702
0.038747
0.038793
0.038842
0.038888
0.038931
0.038972
0.039012
0.039041
0.039053
0.000000
0.000000
0.038460
0.037747
0.038520
0.038561
0.038604
0.038649
0.038697
0.038744
0.038786
0.038826
0.038865
0.038903
0.038936
0.038970
0.038998
0.039009
0.000000
0.000000
0.037694
0.038526
0.038579
0.038610
0.038646
0.038683
0.038718
0.038750
0.038782
0.038816
0.038848
0.038880
0.038908
0.038934
0.038954
0.038965
0.000000
0.000000
0.038505
0.037778
0.038569
0.038614
0.038647
0.038680
0.038714
0.038748
0.038778
0.038806
0.038833
0.038860
0.038885
0.038907
0.038922
0.038933
0.000000
0.000000
0.037787
0.038628
0.038629
0.038651
0.038676
0.038703
0.038729
0.038752
0.038776
0.038801
0.038825
0.038849
0.038869
0.038888
0.038903
0.038914
0.000000
0.000000
0.037287
0.038512
0.038579
0.038649
0.038673
0.038698
0.038724
0.038751
0.038775
0.038797
0.038819
0.038840
0.038860
0.038878
0.038892
0.038902
0.000000
0.000000
0.038074
0.038619
0.038655
0.038670
0.038690
0.038713
0.038734
0.038754
0.038774
0.038796
0.038817
0.038836
0.038855
0.038872
0.038887
0.038896
0.000000
0.000000
0.037533
0.038514
0.038674
0.038660
0.038680
0.038704
0.038729
0.038753
0.038775
0.038795
0.038815
0.038835
0.038854
0.038872
0.038887
0.038895
0.000000
0.000000
0.038027
0.038485
0.038614
0.038660
0.038689
0.038713
0.038735
0.038755
0.038776
0.038797
0.038818
0.038838
0.038857
0.038875
0.038891
0.038900
0.000000
0.000000
0.037289
0.038649
0.038638
0.038660
0.038679
0.038703
0.038729
0.038754
0.038776
0.038798
0.038820
0.038840
0.038861
0.038881
0.038898
0.038907
0.000000
0.000000
0.038514
0.038567
0.038634
0.038662
0.038687
0.038711
0.038735
0.038757
0.038779
0.038801
0.038824
0.038846
0.038868
0.038889
0.038908
0.038918
0.000000
0.000000
0.037542
0.038522
0.038583
0.038628
0.038665
0.038695
0.038725
0.038754
0.038780
0.038805
0.038829
0.038853
0.038878
0.038898
0.038915
0.038927
0.000000
0.000000
0.037634
0.038583
0.038618
0.038644
0.038672
0.038701
0.038730
0.038757
0.038784
0.038811
0.038838
0.038863
0.038889
0.038910
0.038929
0.038944
0.000000
0.000000
0.038336
0.038572
0.038616
0.038640
0.038669
0.038698
0.038726
0.038755
0.038786
0.038817
0.038847
0.038876
0.038903
0.038928
0.038954
0.038962
0.000000
0.000000
0.037515
0.038507
0.038577
0.038597
0.038635
0.038674
0.038715
0.038754
0.038790
0.038826
0.038860
0.038893
0.038925
0.038954
0.038984
0.038993
0.000000
0.000000
0.037970
0.038495
0.038556
0.038590
0.038633
0.038676
0.038714
0.038754
0.038794
0.038835
0.038876
0.038915
0.038953
0.038994
0.039017
0.039025
0.000000
0.000000
0.037353
0.038391
0.038449
0.038528
0.038587
0.038645
0.038702
0.038753
0.038802
0.038851
0.038897
0.038942
0.038985
0.039029
0.039064
0.039074
0.000000
0.000000
0.037047
0.037634
0.038383
0.038465
0.038532
0.038599
0.038668
0.038738
0.038806
0.038867
0.038923
0.038976
0.039027
0.039074
0.039117
0.039126
0.000000
0.000000
0.038297
0.037766
0.038397
0.038458
0.038532
0.038610
0.038685
0.038753
0.038823
0.038889
0.038959
0.039023
0.039086
0.039144
0.039192
0.039206
0.000000
0.000000
0.036693
0.038185
0.038223
0.038336
0.038437
0.038540
0.038642
0.038743
0.038834
0.038918
0.039000
0.039079
0.039155
0.039227
0.039290
0.039309
0.000000
0.000000
0.037893
0.037417
0.038172
0.038302
0.038430
0.038551
0.038659
0.038756
0.038851
0.038951
0.039049
0.039150
0.039245
0.039334
0.039419
0.039442
0.000000
0.000000
0.036280
0.037823
0.037918
0.038118
0.038299
0.038460
0.038611
0.038751
0.038872
0.038986
0.039105
0.039226
0.039347
0.039467
0.039574
0.039591
0.000000
0.000000
0.037525
0.037664
0.037921
0.038152
0.038339
0.038499
0.038641
0.038769
0.038887
0.039015
0.039151
0.039294
0.039446
0.039576
0.039729
0.039820
0.000000
0.000000
0.035454
0.037481
0.037780
0.038042
0.038242
0.038422
0.038588
0.038745
0.038893
0.039032
0.039182
0.039339
0.039523
0.039735
0.039944
0.040042
0.000000
0.000000
0.034499
0.040046
0.040056
0.000000
0.000000
0.036164
0.039942
0.039954
0.000000
0.000000
0.036365
0.039762
0.039774
0.000000
0.000000
0.036632
0.039624
0.039622
0.000000
0.000000
0.037026
0.039499
0.039501
0.000000
0.000000
0.037031
0.039392
0.039401
0.000000
0.000000
0.035925
0.039316
0.039315
0.000000
0.000000
0.037121
0.039238
0.039237
0.000000
0.000000
0.037209
0.039177
0.039180
0.000000
0.000000
0.036780
0.039141
0.039140
0.000000
0.000000
0.036861
0.039105
0.039107
0.000000
0.000000
0.037780
0.039078
0.039083
0.000000
0.000000
0.036187
0.039063
0.039063
0.000000
0.000000
0.037369
0.039052
0.039054
0.000000
0.000000
0.036694
0.039047
0.039050
0.000000
0.000000
0.037423
0.039047
0.039049
0.000000
0.000000
0.036060
0.039048
0.039051
0.000000
0.000000
0.037673
0.039055
0.039059
0.000000
0.000000
0.036394
0.039071
0.039075
0.000000
0.000000
0.037825
0.039103
0.039109
0.000000
0.000000
0.037630
0.039149
0.039146
0.000000
0.000000
0.036573
0.039174
0.039183
0.000000
0.000000
0.037368
0.039235
0.039241
0.000000
0.000000
0.036410
0.039278
0.039286
0.000000
0.000000
0.035979
0.039343
0.039355
0.000000
0.000000
0.036694
0.039446
0.039451
0.000000
0.000000
0.035558
0.039564
0.039564
0.000000
0.000000
0.036694
0.039688
0.039689
0.000000
0.000000
0.034372
0.039827
0.039839
0.000000
0.000000
0.035635
0.039954
0.039967
0.000000
0.000000
0.034235
0.040034
0.040039
0.000000
0.000000
0.033638
0.040348
0.040332
0.000000
0.000000
0.034320
0.040226
0.040261
0.000000
0.000000
0.034649
0.040123
0.040105
0.000000
0.000000
0.035165
0.039964
0.039974
0.000000
0.000000
0.035508
0.039836
0.039818
0.000000
0.000000
0.035469
0.039694
0.039712
0.000000
0.000000
0.035785
0.039601
0.039590
0.000000
0.000000
0.035561
0.039524
0.039525
0.000000
0.000000
0.035730
0.039429
0.039441
0.000000
0.000000
0.036002
0.039393
0.039396
0.000000
0.000000
0.036221
0.039365
0.039368
0.000000
0.000000
0.036082
0.039332
0.039339
0.000000
0.000000
0.035288
0.039311
0.039312
0.000000
0.000000
0.035624
0.039293
0.039294
0.000000
0.000000
0.035859
0.039283
0.039284
0.000000
0.000000
0.036324
0.039279
0.039279
0.000000
0.000000
0.034517
0.039275
0.039277
0.000000
0.000000
0.035665
0.039281
0.039281
0.000000
0.000000
0.036153
0.039303
0.039303
0.000000
0.000000
0.036422
0.039346
0.039344
0.000000
0.000000
0.036520
0.039401
0.039397
0.000000
0.000000
0.035156
0.039436
0.039442
0.000000
0.000000
0.035379
0.039497
0.039499
0.000000
0.000000
0.036471
0.039547
0.039553
0.000000
0.000000
0.035341
0.039641
0.039642
0.000000
0.000000
0.034055
0.039739
0.039747
0.000000
0.000000
0.035732
0.039869
0.039869
0.000000
0.000000
0.034441
0.039993
0.039992
0.000000
0.000000
0.035506
0.040101
0.040101
0.000000
0.000000
0.033996
0.040194
0.040194
0.000000
0.000000
0.033432
0.040235
0.040230
0.000000
0.000000
0.032275
0.040767
0.040741
0.000000
0.000000
0.032643
0.040682
0.040696
0.000000
0.000000
0.032914
0.040581
0.040566
0.000000
0.000000
0.033257
0.040420
0.040433
0.000000
0.000000
0.033478
0.040279
0.040264
0.000000
0.000000
0.033698
0.040117
0.040132
0.000000
0.000000
0.033947
0.040005
0.039984
0.000000
0.000000
0.033862
0.039887
0.039888
0.000000
0.000000
0.034354
0.039795
0.039807
0.000000
0.000000
0.034719
0.039735
0.039725
0.000000
0.000000
0.034883
0.039693
0.039695
0.000000
0.000000
0.034453
0.039655
0.039660
0.000000
0.000000
0.033696
0.039628
0.039626
0.000000
0.000000
0.033664
0.039603
0.039601
0.000000
0.000000
0.034086
0.039589
0.039590
0.000000
0.000000
0.033958
0.039583
0.039582
0.000000
0.000000
0.034932
0.039579
0.039577
0.000000
0.000000
0.034103
0.039581
0.039580
0.000000
0.000000
0.034423
0.039604
0.039605
0.000000
0.000000
0.034593
0.039641
0.039643
0.000000
0.000000
0.034891
0.039702
0.039698
0.000000
0.000000
0.033343
0.039735
0.039746
0.000000
0.000000
0.033940
0.039807
0.039810
0.000000
0.000000
0.034125
0.039867
0.039873
0.000000
0.000000
0.033900
0.039966
0.039971
0.000000
0.000000
0.032315
0.040075
0.040083
0.000000
0.000000
0.034468
0.040193
0.040197
0.000000
0.000000
0.032976
0.040307
0.040311
0.000000
0.000000
0.032838
0.040385
0.040386
0.000000
0.000000
0.032188
0.040457
0.040450
0.000000
0.000000
0.032203
0.040489
0.040490
0.000000
0.000000
0.030820
0.041188
0.041223
0.000000
0.000000
0.030829
0.041162
0.041176
0.000000
0.000000
0.030900
0.041047
0.041049
0.000000
0.000000
0.031273
0.040892
0.040912
0.000000
0.000000
0.031337
0.040744
0.040731
0.000000
0.000000
0.031611
0.040572
0.040589
0.000000
0.000000
0.032242
0.040440
0.040428
0.000000
0.000000
0.032038
0.040314
0.040320
0.000000
0.000000
0.032820
0.040214
0.040223
0.000000
0.000000
0.033049
0.040140
0.040136
0.000000
0.000000
0.033011
0.040081
0.040086
0.000000
0.000000
0.033131
0.040037
0.040038
0.000000
0.000000
0.031842
0.040001
0.040003
0.000000
0.000000
0.031793
0.039971
0.039971
0.000000
0.000000
0.031663
0.039954
0.039954
0.000000
0.000000
0.031738
0.039943
0.039943
0.000000
0.000000
0.032434
0.039945
0.039944
0.000000
0.000000
0.032388
0.039950
0.039945
0.000000
0.000000
0.032536
0.039972
0.039972
0.000000
0.000000
0.032650
0.040010
0.040011
0.000000
0.000000
0.033027
0.040047
0.040058
0.000000
0.000000
0.031727
0.040114
0.040111
0.000000
0.000000
0.031983
0.040171
0.040172
0.000000
0.000000
0.032197
0.040243
0.040240
0.000000
0.000000
0.031227
0.040344
0.040337
0.000000
0.000000
0.031047
0.040451
0.040447
0.000000
0.000000
0.032646
0.040553
0.040554
0.000000
0.000000
0.030971
0.040640
0.040641
0.000000
0.000000
0.030672
0.040704
0.040719
0.000000
0.000000
0.030819
0.040779
0.040763
0.000000
0.000000
0.031045
0.040797
0.040803
0.000000
0.000000
0.029315
0.041606
0.041576
0.000000
0.000000
0.027563
0.041591
0.041562
0.000000
0.000000
0.029044
0.041500
0.041504
0.000000
0.000000
0.028984
0.041346
0.041374
0.000000
0.000000
0.029228
0.041204
0.041190
0.000000
0.000000
0.029553
0.041032
0.041053
0.000000
0.000000
0.029822
0.040905
0.040889
0.000000
0.000000
0.030319
0.040771
0.040767
0.000000
0.000000
0.030610
0.040661
0.040655
0.000000
0.000000
0.030810
0.040577
0.040575
0.000000
0.000000
0.030977
0.040506
0.040513
0.000000
0.000000
0.031196
0.040459
0.040452
0.000000
0.000000
0.029572
0.040421
0.040423
0.000000
0.000000
0.029611
0.040388
0.040386
0.000000
0.000000
0.029420
0.040366
0.040360
0.000000
0.000000
0.029387
0.040339
0.040356
0.000000
0.000000
0.029981
0.040357
0.040354
0.000000
0.000000
0.030055
0.040359
0.040355
0.000000
0.000000
0.030742
0.040378
0.040380
0.000000
0.000000
0.030532
0.040419
0.040421
0.000000
0.000000
0.030938
0.040462
0.040468
0.000000
0.000000
0.029775
0.040527
0.040511
0.000000
0.000000
0.029834
0.040578
0.040585
0.000000
0.000000
0.029600
0.040661
0.040662
0.000000
0.000000
0.029184
0.040757
0.040757
0.000000
0.000000
0.029035
0.040852
0.040859
0.000000
0.000000
0.030821
0.040934
0.040945
0.000000
0.000000
0.028419
0.041004
0.041027
0.000000
0.000000
0.028636
0.041072
0.041076
0.000000
0.000000
0.029237
0.041128
0.041114
0.000000
0.000000
0.028466
0.041139
0.041148
0.000000
0.000000
0.025953
0.041992
0.041984
0.000000
0.000000
0.027774
0.041959
0.041972
0.000000
0.000000
0.026465
0.041892
0.041889
0.000000
0.000000
0.026753
0.041770
0.041771
0.000000
0.000000
0.027036
0.041622
0.041615
0.000000
0.000000
0.027171
0.041472
0.041484
0.000000
0.000000
0.027212
0.041341
0.041337
0.000000
0.000000
0.028234
0.041219
0.041225
0.000000
0.000000
0.028085
0.041114
0.041114
0.000000
0.000000
0.028258
0.041028
0.041032
0.000000
0.000000
0.028563
0.040964
0.040972
0.000000
0.000000
0.028988
0.040917
0.040901
0.000000
0.000000
0.026958
0.040873
0.040874
0.000000
0.000000
0.027146
0.040838
0.040841
0.000000
0.000000
0.027217
0.040817
0.040801
0.000000
0.000000
0.027132
0.040781
0.040799
0.000000
0.000000
0.027205
0.040802
0.040793
0.000000
0.000000
0.027444
0.040805
0.040804
0.000000
0.000000
0.028523
0.040828
0.040822
0.000000
0.000000
0.028476
0.040854
0.040861
0.000000
0.000000
0.027444
0.040902
0.040909
0.000000
0.000000
0.027906
0.040980
0.040958
0.000000
0.000000
0.027358
0.041026
0.041042
0.000000
0.000000
0.027005
0.041119
0.041115
0.000000
0.000000
0.026991
0.041207
0.041201
0.000000
0.000000
0.026662
0.041287
0.041286
0.000000
0.000000
0.028998
0.041356
0.041363
0.000000
0.000000
0.026357
0.041419
0.041411
0.000000
0.000000
0.026955
0.041461
0.041454
0.000000
0.000000
0.026894
0.041510
0.041494
0.000000
0.000000
0.026700
0.041514
0.041517
0.000000
0.000000
0.024504
0.042388
0.042364
0.000000
0.000000
0.024312
0.042370
0.042362
0.000000
0.000000
0.024131
0.042309
0.042314
0.000000
0.000000
0.024463
0.042160
0.042184
0.000000
0.000000
0.024530
0.042045
0.042036
0.000000
0.000000
0.024648
0.041905
0.041925
0.000000
0.000000
0.024612
0.041791
0.041782
0.000000
0.000000
0.025908
0.041685
0.041689
0.000000
0.000000
0.025638
0.041588
0.041582
0.000000
0.000000
0.025503
0.041510
0.041508
0.000000
0.000000
0.025897
0.041448
0.041451
0.000000
0.000000
0.026507
0.041398
0.041390
0.000000
0.000000
0.024123
0.041353
0.041357
0.000000
0.000000
0.024419
0.041318
0.041321
0.000000
0.000000
0.024740
0.041303
0.041287
0.000000
0.000000
0.024917
0.041273
0.041287
0.000000
0.000000
0.024627
0.041280
0.041276
0.000000
0.000000
0.024228
0.041280
0.041281
0.000000
0.000000
0.026854
0.041303
0.041295
0.000000
0.000000
0.026000
0.041334
0.041351
0.000000
0.000000
0.023561
0.041383
0.041392
0.000000
0.000000
0.025281
0.041460
0.041443
0.000000
0.000000
0.025052
0.041506
0.041519
0.000000
0.000000
0.024413
0.041589
0.041599
0.000000
0.000000
0.024333
0.041672
0.041674
0.000000
0.000000
0.024337
0.041747
0.041745
0.000000
0.000000
0.026307
0.041797
0.041806
0.000000
0.000000
0.024656
0.041841
0.041865
0.000000
0.000000
0.024602
0.041914
0.041903
0.000000
0.000000
0.024531
0.041957
0.041941
0.000000
0.000000
0.024539
0.041967
0.041984
0.000000
0.000000
0.022169
0.042779
0.042764
0.000000
0.000000
0.022288
0.042750
0.042758
0.000000
0.000000
0.021879
0.042720
0.042728