# vtk DataFile Version 2.0
Unstructured Grid Example
ASCII
DATASET UNSTRUCTURED_GRID
POINTS 613 float
-0.000230 0.471058 0.000000 
0.471544 0.129713 0.000000 
-0.471623 0.129481 0.000000 
0.500000 -0.022282 0.000000 
-0.500000 -0.022606 0.000000 
0.000000 -0.500000 0.000000 
-0.486117 -0.158274 0.000000 
-0.493507 -0.123381 0.000000 
-0.498164 -0.088879 0.000000 
-0.475555 -0.067454 0.000000 
-0.500331 -0.053075 0.000000 
-0.465552 -0.010443 0.000000 
-0.498405 0.007179 0.000000 
-0.494708 0.038569 0.000000 
-0.488843 0.070686 0.000000 
-0.481373 0.100561 0.000000 
-0.465722 -0.220369 0.000000 
-0.476626 -0.190887 0.000000 
-0.453537 -0.169001 0.000000 
-0.464949 -0.135402 0.000000 
-0.441913 -0.111552 0.000000 
-0.469670 -0.101396 0.000000 
-0.448970 -0.075373 0.000000 
-0.465074 -0.039815 0.000000 
-0.433172 -0.023631 0.000000 
-0.467232 0.017873 0.000000 
-0.440600 0.032728 0.000000 
-0.464440 0.051578 0.000000 
-0.454693 0.081683 0.000000 
-0.446779 0.108998 0.000000 
-0.442067 0.142922 0.000000 
-0.459568 0.165526 0.000000 
-0.445446 0.197772 0.000000 
-0.437268 -0.277930 0.000000 
-0.452499 -0.249680 0.000000 
-0.429383 -0.221865 0.000000 
-0.439113 -0.193732 0.000000 
-0.414058 -0.164931 0.000000 
-0.436241 -0.146003 0.000000 
-0.414742 -0.126858 0.000000 
-0.422198 -0.089355 0.000000 
-0.399241 -0.070151 0.000000 
-0.430671 -0.053357 0.000000 
-0.399343 -0.010021 0.000000 
-0.430633 0.005773 0.000000 
-0.411762 0.039968 0.000000 
-0.430884 0.064379 0.000000 
-0.416435 0.090201 0.000000 
-0.419089 0.121182 0.000000 
-0.408045 0.148595 0.000000 
-0.425404 0.173459 0.000000 
-0.408409 0.199663 0.000000 
-0.430137 0.227056 0.000000 
-0.413679 0.254131 0.000000 
-0.401391 -0.330400 0.000000 
-0.420152 -0.304928 0.000000 
-0.400403 -0.274927 0.000000 
-0.415805 -0.248931 0.000000 
-0.392879 -0.220761 0.000000 
-0.404491 -0.193552 0.000000 
-0.379240 -0.166224 0.000000 
-0.387915 -0.138060 0.000000 
-0.395187 -0.104042 0.000000 
-0.400382 -0.039548 0.000000 
-0.396135 0.020284 0.000000 
-0.394647 0.065553 0.000000 
-0.378415 0.088385 0.000000 
-0.390626 0.113989 0.000000 
-0.377909 0.139781 0.000000 
-0.387575 0.172239 0.000000 
-0.370238 0.194946 0.000000 
-0.391544 0.224215 0.000000 
-0.381146 0.252328 0.000000 
-0.393840 0.282324 0.000000 
-0.357963 -0.378027 0.000000 
-0.380966 -0.354459 0.000000 
-0.365026 -0.322225 0.000000 
-0.383078 -0.299330 0.000000 
-0.362285 -0.271391 0.000000 
-0.378524 -0.246693 0.000000 
-0.355677 -0.218873 0.000000 
-0.368486 -0.193125 0.000000 
-0.345089 0.034687 0.000000 
-0.373864 0.044199 0.000000 
-0.354623 0.071443 0.000000 
-0.355267 0.111229 0.000000 
-0.352337 0.160225 0.000000 
-0.336415 0.188919 0.000000 
-0.354800 0.221557 0.000000 
-0.353933 0.252987 0.000000 
-0.359588 0.283910 0.000000 
-0.372122 0.308949 0.000000 
-0.323754 -0.371548 0.000000 
-0.347336 -0.346377 0.000000 
-0.327571 -0.317124 0.000000 
-0.343836 -0.294103 0.000000 
-0.323104 -0.267962 0.000000 
-0.340627 -0.243782 0.000000 
-0.314533 0.024535 0.000000 
-0.325848 0.058485 0.000000 
-0.331043 0.095785 0.000000 
-0.345155 0.140322 0.000000 
-0.318925 0.215231 0.000000 
-0.326545 0.245126 0.000000 
-0.329535 0.278703 0.000000 
-0.332376 0.310605 0.000000 
-0.351665 0.330823 0.000000 
-0.330329 0.351000 0.000000 
-0.307331 -0.420108 0.000000 
-0.332908 -0.400359 0.000000 
-0.298658 -0.390040 0.000000 
-0.313999 -0.345549 0.000000 
-0.293223 -0.322650 0.000000 
-0.302399 -0.291858 0.000000 
-0.290682 0.047778 0.000000 
-0.302435 0.075071 0.000000 
-0.300590 0.103399 0.000000 
-0.314943 0.130249 0.000000 
-0.296491 0.243334 0.000000 
-0.300054 0.271522 0.000000 
-0.300518 0.300073 0.000000 
-0.304456 0.332453 0.000000 
-0.306523 0.370780 0.000000 
-0.281765 -0.437061 0.000000 
-0.269041 -0.413990 0.000000 
-0.270011 -0.382952 0.000000 
-0.286006 -0.356598 0.000000 
-0.271268 -0.300787 0.000000 
-0.283534 0.014231 0.000000 
-0.261352 0.042373 0.000000 
-0.271361 0.080669 0.000000 
-0.248870 0.108264 0.000000 
-0.278417 0.118086 0.000000 
-0.270287 0.270311 0.000000 
-0.247106 0.290153 0.000000 
-0.273986 0.310083 0.000000 
-0.278732 0.349449 0.000000 
-0.281502 0.388930 0.000000 
-0.255676 -0.451701 0.000000 
-0.235558 -0.428824 0.000000 
-0.241303 -0.396869 0.000000 
-0.249447 -0.361642 0.000000 
-0.260900 -0.333477 0.000000 
-0.238137 -0.311836 0.000000 
-0.254324 -0.277787 0.000000 
-0.237017 -0.255031 0.000000 
-0.253968 0.004415 0.000000 
-0.232942 0.030789 0.000000 
-0.243366 0.069938 0.000000 
-0.220146 0.098733 0.000000 
-0.223342 0.307385 0.000000 
-0.250822 0.329294 0.000000 
-0.225940 0.345897 0.000000 
-0.253575 0.367945 0.000000 
-0.254330 0.405993 0.000000 
-0.198003 -0.475582 0.000000 
-0.226904 -0.464923 0.000000 
-0.203188 -0.437654 0.000000 
-0.209845 -0.404467 0.000000 
-0.219965 -0.374124 0.000000 
-0.224051 -0.342634 0.000000 
-0.203305 -0.323131 0.000000 
-0.220557 -0.288640 0.000000 
-0.201516 -0.265856 0.000000 
-0.219761 -0.232714 0.000000 
-0.222979 -0.005848 0.000000 
-0.205133 0.037379 0.000000 
-0.215324 0.065489 0.000000 
-0.189628 0.088631 0.000000 
-0.198851 0.322377 0.000000 
-0.199820 0.360386 0.000000 
-0.226641 0.383938 0.000000 
-0.225622 0.421393 0.000000 
-0.163973 -0.485278 0.000000 
-0.177459 -0.456002 0.000000 
-0.181137 -0.406805 0.000000 
-0.188007 -0.372375 0.000000 
-0.190444 -0.359478 0.000000 
-0.170807 -0.333370 0.000000 
-0.187070 -0.299104 0.000000 
-0.165516 -0.279172 0.000000 
-0.191129 -0.234525 0.000000 
-0.198922 -0.206064 0.000000 
-0.185756 -0.018123 0.000000 
-0.199063 0.009097 0.000000 
-0.172359 0.027024 0.000000 
-0.181381 0.057961 0.000000 
-0.173600 0.335293 0.000000 
-0.198671 0.397988 0.000000 
-0.169816 0.409983 0.000000 
-0.195672 0.434901 0.000000 
-0.143410 -0.459309 0.000000 
-0.164415 -0.431742 0.000000 
-0.144459 -0.408322 0.000000 
-0.155913 -0.383311 0.000000 
-0.152140 -0.308941 0.000000 
-0.132200 -0.283260 0.000000 
-0.169995 -0.251432 0.000000 
-0.163340 -0.217276 0.000000 
-0.181482 -0.183877 0.000000 
-0.163584 -0.161126 0.000000 
-0.149022 -0.030135 0.000000 
-0.161573 -0.000968 0.000000 
-0.147988 0.047676 0.000000 
-0.157312 0.077971 0.000000 
-0.147619 0.346213 0.000000 
-0.172815 0.372886 0.000000 
-0.145066 0.383336 0.000000 
-0.164773 0.446367 0.000000 
-0.131688 -0.492120 0.000000 
-0.111790 -0.462613 0.000000 
-0.127230 -0.430909 0.000000 
-0.117963 -0.392345 0.000000 
-0.142478 -0.250114 0.000000 
-0.128679 -0.224202 0.000000 
-0.146491 -0.192892 0.000000 
-0.127937 -0.170087 0.000000 
-0.145926 -0.138572 0.000000 
-0.128554 -0.116154 0.000000 
-0.119836 -0.060576 0.000000 
-0.126941 -0.008946 0.000000 
-0.137230 0.020724 0.000000 
-0.110371 0.041956 0.000000 
-0.124786 0.067258 0.000000 
-0.120909 0.355192 0.000000 
-0.116724 0.391684 0.000000 
-0.140299 0.419898 0.000000 
-0.133188 0.455721 0.000000 
-0.100051 -0.496826 0.000000 
-0.082507 -0.464923 0.000000 
-0.098980 -0.428133 0.000000 
-0.086668 -0.397173 0.000000 
-0.112319 -0.257894 0.000000 
-0.093830 -0.234391 0.000000 
-0.110355 -0.201533 0.000000 
-0.092016 -0.178359 0.000000 
-0.109708 -0.147172 0.000000 
-0.092629 -0.123603 0.000000 
-0.111261 -0.093552 0.000000 
-0.090510 -0.067294 0.000000 
-0.111730 -0.034919 0.000000 
-0.090032 -0.009734 0.000000 
-0.104616 0.013788 0.000000 
-0.087806 0.062553 0.000000 
-0.093423 0.362267 0.000000 
-0.087808 0.397675 0.000000 
-0.110312 0.427440 0.000000 
-0.101266 0.462925 0.000000 
-0.068746 -0.499759 0.000000 
-0.051935 -0.466745 0.000000 
-0.069946 -0.433176 0.000000 
-0.056172 -0.399996 0.000000 
-0.075313 -0.210801 0.000000 
-0.056847 -0.187104 0.000000 
-0.073466 -0.155015 0.000000 
-0.058560 -0.129518 0.000000 
-0.076281 -0.097690 0.000000 
-0.058905 -0.067499 0.000000 
-0.077477 -0.038307 0.000000 
-0.060699 -0.005557 0.000000 
-0.076643 0.026909 0.000000 
-0.055169 0.051299 0.000000 
-0.064466 0.080860 0.000000 
-0.064966 0.367450 0.000000 
-0.059639 0.404788 0.000000 
-0.080539 0.433768 0.000000 
-0.068796 0.468050 0.000000 
-0.037460 -0.501168 0.000000 
-0.020464 -0.453512 0.000000 
-0.040080 -0.430829 0.000000 
-0.023484 -0.401437 0.000000 
-0.038377 -0.163193 0.000000 
-0.028881 -0.125990 0.000000 
-0.044303 -0.097223 0.000000 
-0.027399 -0.065846 0.000000 
-0.045365 -0.036433 0.000000 
-0.027207 -0.009826 0.000000 
-0.043006 0.020874 0.000000 
-0.023903 0.049617 0.000000 
-0.034453 0.082482 0.000000 
-0.012505 0.106794 0.000000 
-0.050123 0.113971 0.000000 
-0.050183 0.149163 0.000000 
-0.050209 0.182642 0.000000 
-0.017756 0.202389 0.000000 
-0.050225 0.213949 0.000000 
-0.050241 0.244447 0.000000 
-0.050259 0.274543 0.000000 
-0.050285 0.304299 0.000000 
-0.050339 0.332713 0.000000 
-0.033783 0.354426 0.000000 
-0.034194 0.383731 0.000000 
-0.028376 0.414534 0.000000 
-0.050013 0.439615 0.000000 
-0.035227 0.471018 0.000000 
-0.019460 -0.480320 0.000000 
0.012185 -0.466761 0.000000 
-0.003136 -0.430920 0.000000 
0.009137 -0.401647 0.000000 
-0.011351 -0.150927 0.000000 
0.003366 -0.119163 0.000000 
-0.011899 -0.093087 0.000000 
0.008152 -0.065641 0.000000 
-0.010653 -0.039249 0.000000 
0.006753 -0.013754 0.000000 
-0.010695 0.017543 0.000000 
0.008467 0.043225 0.000000 
-0.002375 0.074985 0.000000 
0.021466 0.097367 0.000000 
-0.022837 0.134007 0.000000 
-0.001989 0.154289 0.000000 
-0.021976 0.172096 0.000000 
0.013275 0.188719 0.000000 
-0.016820 0.232276 0.000000 
0.016591 0.248330 0.000000 
-0.016866 0.262477 0.000000 
-0.017302 0.293146 0.000000 
-0.016041 0.324297 0.000000 
0.018196 0.339589 0.000000 
-0.005126 0.358146 0.000000 
-0.001870 0.389583 0.000000 
-0.016784 0.444425 0.000000 
0.017733 0.443196 0.000000 
0.030084 -0.501221 0.000000 
0.043330 -0.468274 0.000000 
0.026925 -0.435268 0.000000 
0.039266 -0.400932 0.000000 
0.014949 -0.150542 0.000000 
0.035462 -0.126756 0.000000 
0.023818 -0.094097 0.000000 
0.043079 -0.067113 0.000000 
0.026222 -0.037734 0.000000 
0.045353 -0.008911 0.000000 
0.021251 0.010392 0.000000 
0.039463 0.030283 0.000000 
0.030653 0.065768 0.000000 
[...]
POINT_DATA 613
SCALARS u float 1
LOOKUP_TABLE default
0.134347
13.122756
2.788046
1.425589
0.760894
-3.086418
-1.687349
-0.326060
1.299731
1.787090
3.841889
0.821672
-2.774296
-1.190058
0.851857
5.879639
-5.736091
-3.653877
1.054246
1.670152
3.751122
1.983724
3.775896
2.587403
1.747570
0.175015
1.552207
-0.136524
0.143762
3.991131
-3.802751
-10.327772
-4.504632
-7.413370
-6.659953
0.376507
0.252307
3.702460
2.906316
2.320917
2.437817
3.172603
2.734104
1.583447
1.424434
0.734323
-0.820263
4.347466
0.284867
-3.145444
-5.557313
-4.427713
-3.641129
-1.970616
-7.652386
-7.772451
-0.039487
-0.010965
3.723581
3.630888
9.714441
7.871263
4.295889
2.235948
-0.631057
4.261894
3.074692
2.207823
1.827058
-3.841708
-2.911881
-3.156431
-1.885555
-0.078089
-6.278699
-6.798417
0.160913
0.006421
4.070419
3.816138
12.631288
11.678482
2.585840
2.119588
1.627320
-0.050463
2.619430
-1.724127
-3.271088
-2.253536
-2.166158
0.815629
0.967458
0.403980
4.716519
4.573978
11.924776
13.014794
1.636257
1.179178
1.649095
1.896564
-4.337816
-2.784465
-2.575400
-0.952655
2.215318
2.391086
-11.211011
-8.657238
0.587262
6.140005
11.835831
15.871701
1.352324
1.311946
1.431300
1.619856
-4.869306
-3.195312
-2.094019
-0.678767
3.277835
-13.823905
-6.323366
0.531966
7.622934
23.010514
1.211862
1.367091
1.449699
1.699324
1.426525
-8.076596
-7.779224
-3.041157
-0.813833
3.123501
-10.350948
-1.953604
-5.132275
6.193112
8.310366
3.659618
21.861943
14.029914
0.927819
1.152297
1.365634
1.890462
-8.014930
-3.183570
-3.032696
-1.071841
2.467048
-2.218956
-10.306578
4.718690
10.558087
3.844577
0.473821
-4.220436
2.063023
1.474203
8.499079
0.811676
1.249096
1.715165
2.102671
-7.359638
-3.001956
-1.262733
1.552703
4.353367
6.693086
5.569568
8.687015
-11.004964
-11.866143
-4.740796
-1.986581
0.468814
3.527598
0.519313
1.316625
1.260678
1.596800
-6.218563
-1.607204
-1.979895
0.407210
7.613699
9.395231
6.531338
6.611180
-9.408980
-6.202290
-0.136493
0.444907
-0.376599
-4.014925
0.620031
1.051953
1.535400
2.138649
-4.899614
-2.964308
-2.920357
-0.822236
8.471808
9.196636
8.079678
7.100028
-1.430572
-0.204958
-0.412888
-1.383999
-8.061552
-11.749626
-1.136800
1.878757
1.201186
0.284250
1.452147
-3.694241
-2.992373
-2.329852
-1.953590
10.772657
6.522835
7.050893
5.006783
-2.737135
1.382497
0.716270
1.247270
-1.917593
-2.140814
-7.113450
-2.187676
0.125543
-0.456362
0.462222
-1.953316
-2.008687
-3.712248
-2.774102
-2.533658
13.625606
12.964905
11.294300
4.277336
5.345539
9.942610
0.768062
-0.367445
-2.311074
-2.018277
-1.053560
-1.136922
-0.289098
-1.303729
-2.953443
-2.179317
-2.634077
-3.333571
-4.146688
1.046461
8.663156
0.449858
4.773712
7.539971
0.145935
-1.429137
-1.036948
-1.519947
-0.674518
-0.890523
-0.666113
-1.193121
-0.388953
-1.382024
-0.466687
-0.127714
-0.019078
-0.131949
-0.172596
-0.324263
-0.863874
-1.019909
-1.074510
-0.555186
-3.695209
-2.567896
-8.565897
14.660793
-9.589594
7.504461
4.740737
1.662230
0.200498
-0.314638
0.352694
-0.280594
0.274019
-0.300795
0.117987
-0.162382
0.694152
-0.057970
-0.008344
0.003260
-0.027438
-0.005095
-0.033182
-0.071443
0.004341
-0.486716
0.473722
-0.183921
-0.295626
-4.631670
3.355943
-36.789136
-4.467275
-10.473321
3.957338
-3.217376
0.051511
0.847109
2.183233
0.836988
0.978836
0.381770
0.565348
0.576175
2.829129
0.272127
0.570689
-0.060228
0.069918
-0.003346
0.247519
0.075283
0.804132
0.051341
2.501760
-0.171722
3.775915
-0.030244
9.835039
-16.097866
-11.705539
-7.552019
0.548493
-8.985266
-7.957939
-0.050556
1.705569
3.466063
1.829483
0.977965
0.808173
0.422762
1.326690
1.844745
0.131730
0.151365
0.406968
2.046004
2.865772
3.097926
3.672234
3.081673
-12.100425
-8.924667
-7.828201
-1.512636
-0.845014
-4.805139
-1.554424
-0.440490
2.057126
3.288527
1.882062
1.450932
-0.596100
-0.047508
-0.019885
2.658685
3.854035
2.439196
2.447774
2.127755
-10.769470
-8.265673
-8.114840
-4.184032
7.275438
3.268037
0.402506
-0.530960
1.153848
1.797712
8.351896
-2.079273
-1.164882
-1.201396
-1.053625
4.749696
3.132261
2.286734
1.828545
-5.864450
-8.487035
-8.853865
-8.272230
9.910058
2.352391
1.253834
-0.348567
0.429754
4.444226
9.582056
-0.164006
-1.161624
-1.328066
-1.162369
4.727443
2.791722
2.043898
2.226284
0.600712
-7.066999
-5.447171
-7.499157
11.899639
4.296293
-1.698135
-1.097748
-4.833007
-0.278452
-1.142011
-1.258035
-1.311658
-1.711355
6.025818
2.860196
1.598636
0.893158
8.251939
-2.024200
-11.583048
-2.291992
10.211209
3.792457
-1.525748
-15.629766
-9.447974
-1.282723
-1.351108
-1.458178
-1.676454
7.143344
2.739516
2.925757
-1.104812
-0.129803
15.536029
4.302449
9.889568
-6.968500
-3.472488
-5.568208
-21.428871
-1.068903
-1.373617
-1.503375
-1.408058
6.492712
7.630726
1.095966
1.368261
-2.007516
15.502072
-0.121924
-3.082239
-5.519888
-15.232273
-1.371361
-1.372609
-1.261028
-1.506816
2.859047
3.526124
-0.389800
-1.985735
13.540966
-0.233325
-8.140455
-4.673109
-1.788044
-1.211303
-1.483207
-1.040717
6.201500
7.505058
2.377753
1.989764
-2.200885
-2.250565
5.688685
4.553612
-2.317085
-3.688655
-10.707582
-15.749570
-2.696009
-1.393706
-1.663618
-0.874443
2.200265
4.525621
3.040672
2.987088
1.179991
1.794461
-0.579862
0.366232
-2.987517
-3.069646
-14.234650
-13.157170
-1.712356
-2.336617
-0.742341
-1.810276
-0.814130
3.139598
2.864852
2.329637
1.619446
-1.450865
-2.505928
5.011171
7.127643
-0.282847
0.171707
-3.835817
-3.781311
-11.769213
-10.743282
-2.399582
-0.447395
-1.675437
-3.767382
-3.362364
2.281473
3.279509
3.595696
2.929389
1.746517
-0.007955
7.872820
7.681475
-0.066755
-0.126454
-3.189230
-3.120081
-3.743375
-2.963628
-3.472460
-2.690294
-0.876308
-1.679463
-4.173517
-0.168701
-3.739788
-1.494185
-0.120110
4.589846
5.001057
5.021720
3.646038
7.048722
5.807329
-0.613583
-1.181300
-3.492449
-1.882717
-2.810924
-2.209636
-3.503407
-1.470361
-0.424114
0.392231
-3.370594
-1.928729
-5.204196
16.445629
7.134802
3.957594
1.176570
0.734595
-1.904473
-2.524934
-3.226612
4.966662
-0.598974
1.570782
0.713165
1.090604
4.727899
