# vtk DataFile Version 2.0
Unstructured Grid Example
ASCII
DATASET UNSTRUCTURED_GRID
POINTS 2441 float
0.000090 0.470361 0.000000 
0.471132 0.129091 0.000000 
-0.471121 0.129287 0.000000 
0.500000 -0.022761 0.000000 
-0.500000 -0.022537 0.000000 
0.000000 -0.500000 0.000000 
-0.500462 -0.053302 0.000000 
-0.486248 -0.015963 0.000000 
-0.498267 0.009049 0.000000 
-0.487569 -0.154192 0.000000 
-0.493410 -0.125885 0.000000 
-0.495845 -0.110422 0.000000 
-0.497540 -0.097047 0.000000 
-0.498944 -0.082613 0.000000 
-0.486902 -0.074052 0.000000 
-0.499971 -0.067012 0.000000 
-0.487043 -0.046796 0.000000 
-0.500532 -0.037890 0.000000 
-0.486548 -0.030473 0.000000 
-0.499454 -0.006895 0.000000 
-0.485871 0.000491 0.000000 
-0.496754 0.023395 0.000000 
-0.483792 0.029511 0.000000 
-0.494539 0.039676 0.000000 
-0.492073 0.054433 0.000000 
-0.488929 0.070249 0.000000 
-0.485571 0.084757 0.000000 
-0.481574 0.099743 0.000000 
-0.479235 -0.184529 0.000000 
-0.483571 -0.169754 0.000000 
-0.473927 -0.157631 0.000000 
-0.490644 -0.140393 0.000000 
-0.477904 -0.129682 0.000000 
-0.482363 -0.115426 0.000000 
-0.479211 -0.101586 0.000000 
-0.483428 -0.088433 0.000000 
-0.472664 -0.074899 0.000000 
-0.483000 -0.060694 0.000000 
-0.470205 -0.051966 0.000000 
-0.474675 -0.038366 0.000000 
-0.470477 -0.024412 0.000000 
-0.474047 -0.009941 0.000000 
-0.469976 0.003488 0.000000 
-0.481181 0.014926 0.000000 
-0.470022 0.028103 0.000000 
-0.478505 0.043537 0.000000 
-0.466339 0.051845 0.000000 
-0.477824 0.060162 0.000000 
-0.472240 0.074234 0.000000 
-0.470305 0.087885 0.000000 
-0.466847 0.103747 0.000000 
-0.476800 0.115079 0.000000 
-0.467448 0.143350 0.000000 
-0.462457 -0.229778 0.000000 
-0.468641 -0.214746 0.000000 
-0.459346 -0.202109 0.000000 
-0.474338 -0.199342 0.000000 
-0.463806 -0.186107 0.000000 
-0.468219 -0.171948 0.000000 
-0.460415 -0.156834 0.000000 
-0.473234 -0.143330 0.000000 
-0.462809 -0.128862 0.000000 
-0.468230 -0.114707 0.000000 
-0.460692 -0.101860 0.000000 
-0.467176 -0.089276 0.000000 
-0.456270 -0.077439 0.000000 
-0.463541 -0.063854 0.000000 
-0.452904 -0.051855 0.000000 
-0.460191 -0.038573 0.000000 
-0.454108 -0.025344 0.000000 
-0.459961 -0.011435 0.000000 
-0.454292 0.001831 0.000000 
-0.462895 0.015489 0.000000 
-0.452734 0.026376 0.000000 
-0.460874 0.038992 0.000000 
-0.450884 0.051659 0.000000 
-0.460576 0.064960 0.000000 
-0.454575 0.078252 0.000000 
-0.457049 0.092186 0.000000 
-0.450917 0.105601 0.000000 
-0.460864 0.117887 0.000000 
-0.455484 0.132030 0.000000 
-0.462970 0.156361 0.000000 
-0.449063 0.158554 0.000000 
-0.457196 0.171221 0.000000 
-0.451127 0.185341 0.000000 
-0.448639 -0.258826 0.000000 
-0.455797 -0.244449 0.000000 
-0.446434 -0.231321 0.000000 
-0.453000 -0.217012 0.000000 
-0.443730 -0.204263 0.000000 
-0.450145 -0.189400 0.000000 
-0.441239 -0.178105 0.000000 
-0.453384 -0.171504 0.000000 
-0.446036 -0.156175 0.000000 
-0.457181 -0.142507 0.000000 
-0.446973 -0.129020 0.000000 
-0.452538 -0.115272 0.000000 
-0.442625 -0.103712 0.000000 
-0.449326 -0.090730 0.000000 
-0.439625 -0.078356 0.000000 
-0.446237 -0.064915 0.000000 
-0.435607 -0.052411 0.000000 
-0.444280 -0.038782 0.000000 
-0.438128 -0.024840 0.000000 
-0.444533 -0.012024 0.000000 
-0.438136 0.000812 0.000000 
-0.445169 0.013494 0.000000 
-0.435934 0.024098 0.000000 
-0.443702 0.038194 0.000000 
-0.435358 0.051992 0.000000 
-0.444433 0.065445 0.000000 
-0.436775 0.077786 0.000000 
-0.442831 0.090902 0.000000 
-0.435845 0.104709 0.000000 
-0.445105 0.119055 0.000000 
-0.438973 0.132080 0.000000 
-0.449018 0.144824 0.000000 
-0.435573 0.157211 0.000000 
-0.441951 0.172286 0.000000 
-0.435464 0.185876 0.000000 
-0.444631 0.199223 0.000000 
-0.437687 0.212944 0.000000 
-0.432780 -0.286805 0.000000 
-0.440962 -0.272955 0.000000 
-0.432454 -0.259126 0.000000 
-0.439628 -0.245304 0.000000 
-0.430219 -0.231815 0.000000 
-0.436920 -0.218226 0.000000 
-0.427347 -0.205298 0.000000 
-0.434250 -0.192002 0.000000 
-0.426182 -0.178282 0.000000 
-0.436023 -0.164576 0.000000 
-0.428431 -0.149804 0.000000 
-0.441581 -0.142894 0.000000 
-0.430832 -0.132573 0.000000 
-0.435942 -0.117598 0.000000 
-0.425225 -0.106021 0.000000 
-0.431578 -0.092561 0.000000 
-0.424299 -0.079874 0.000000 
-0.429183 -0.064931 0.000000 
-0.417178 -0.051020 0.000000 
-0.428585 -0.039606 0.000000 
-0.424572 -0.024859 0.000000 
-0.427848 -0.009651 0.000000 
-0.414337 -0.002496 0.000000 
-0.427126 0.009071 0.000000 
-0.421513 0.024241 0.000000 
-0.427852 0.038337 0.000000 
-0.419230 0.051860 0.000000 
-0.427622 0.065015 0.000000 
-0.419562 0.077205 0.000000 
-0.427307 0.090706 0.000000 
-0.420268 0.104408 0.000000 
-0.429422 0.118264 0.000000 
-0.422336 0.131157 0.000000 
-0.431215 0.144125 0.000000 
-0.420510 0.157328 0.000000 
-0.427360 0.171304 0.000000 
-0.420195 0.185162 0.000000 
-0.428736 0.199370 0.000000 
-0.421626 0.212699 0.000000 
-0.430299 0.226497 0.000000 
-0.422471 0.239867 0.000000 
-0.414907 -0.313635 0.000000 
-0.424107 -0.300347 0.000000 
-0.416618 -0.285956 0.000000 
-0.424777 -0.272692 0.000000 
-0.416212 -0.258776 0.000000 
-0.423448 -0.245409 0.000000 
-0.414139 -0.231670 0.000000 
-0.420571 -0.218241 0.000000 
-0.411067 -0.204030 0.000000 
-0.418370 -0.191705 0.000000 
-0.410624 -0.178262 0.000000 
-0.421104 -0.164276 0.000000 
-0.412298 -0.151747 0.000000 
-0.416989 -0.137249 0.000000 
-0.405555 -0.125877 0.000000 
-0.420158 -0.120932 0.000000 
-0.408894 -0.109805 0.000000 
-0.413682 -0.094995 0.000000 
-0.411007 -0.080670 0.000000 
-0.414162 -0.065412 0.000000 
-0.400170 -0.056683 0.000000 
-0.413401 -0.035444 0.000000 
-0.400245 -0.027024 0.000000 
-0.412725 -0.017875 0.000000 
-0.398198 0.003216 0.000000 
-0.411602 0.011797 0.000000 
-0.407023 0.026804 0.000000 
-0.411871 0.038970 0.000000 
-0.401999 0.049365 0.000000 
-0.410504 0.063555 0.000000 
-0.403274 0.076687 0.000000 
-0.411556 0.090570 0.000000 
-0.404408 0.104135 0.000000 
-0.413274 0.117751 0.000000 
-0.406085 0.131084 0.000000 
-0.414409 0.144124 0.000000 
-0.404863 0.157630 0.000000 
-0.412125 0.171200 0.000000 
-0.404493 0.184745 0.000000 
-0.413000 0.198638 0.000000 
-0.405585 0.211744 0.000000 
-0.414137 0.225825 0.000000 
-0.406277 0.238779 0.000000 
-0.414195 0.253048 0.000000 
-0.405423 0.266091 0.000000 
-0.405089 -0.326766 0.000000 
-0.399331 -0.312068 0.000000 
-0.408148 -0.298995 0.000000 
-0.400375 -0.284523 0.000000 
-0.408494 -0.271831 0.000000 
-0.399843 -0.258122 0.000000 
-0.407262 -0.245017 0.000000 
-0.398254 -0.231082 0.000000 
-0.404842 -0.217532 0.000000 
-0.395661 -0.203047 0.000000 
-0.401781 -0.189291 0.000000 
-0.392995 -0.174210 0.000000 
-0.405869 -0.165887 0.000000 
-0.395912 -0.156865 0.000000 
-0.401424 -0.141384 0.000000 
-0.390194 -0.130795 0.000000 
-0.393431 -0.115765 0.000000 
-0.396009 -0.100856 0.000000 
-0.397847 -0.087129 0.000000 
-0.399337 -0.071438 0.000000 
-0.400468 -0.042803 0.000000 
-0.399438 -0.011200 0.000000 
-0.396400 0.018159 0.000000 
-0.393831 0.034516 0.000000 
-0.386292 0.048168 0.000000 
-0.394245 0.062645 0.000000 
-0.387402 0.076052 0.000000 
-0.395817 0.090202 0.000000 
-0.388787 0.104668 0.000000 
-0.397225 0.117875 0.000000 
-0.390312 0.131375 0.000000 
-0.398112 0.144543 0.000000 
-0.388703 0.157851 0.000000 
-0.396329 0.171111 0.000000 
-0.388275 0.183947 0.000000 
-0.396923 0.197779 0.000000 
-0.389358 0.210663 0.000000 
-0.397946 0.224653 0.000000 
-0.390030 0.237436 0.000000 
-0.398139 0.251656 0.000000 
-0.389560 0.264577 0.000000 
-0.396113 0.279016 0.000000 
-0.394416 -0.339984 0.000000 
-0.390193 -0.325688 0.000000 
-0.384434 -0.309733 0.000000 
-0.392354 -0.297030 0.000000 
-0.383677 -0.283279 0.000000 
-0.391926 -0.270880 0.000000 
-0.383339 -0.257456 0.000000 
-0.391090 -0.244433 0.000000 
-0.382381 -0.230620 0.000000 
-0.389295 -0.216944 0.000000 
-0.380314 -0.202854 0.000000 
-0.386530 -0.188509 0.000000 
-0.376450 -0.175571 0.000000 
-0.381461 -0.161510 0.000000 
-0.386255 -0.145937 0.000000 
-0.372827 0.043824 0.000000 
-0.378122 0.061210 0.000000 
-0.373442 0.078752 0.000000 
-0.380711 0.092003 0.000000 
-0.372510 0.106914 0.000000 
-0.381082 0.118057 0.000000 
-0.375278 0.130841 0.000000 
-0.382001 0.144790 0.000000 
-0.371710 0.155808 0.000000 
-0.379810 0.170065 0.000000 
-0.371992 0.182926 0.000000 
-0.380625 0.196866 0.000000 
-0.372948 0.209876 0.000000 
-0.381635 0.223442 0.000000 
-0.373684 0.235972 0.000000 
-0.382097 0.250230 0.000000 
-0.373788 0.263271 0.000000 
-0.380340 0.277590 0.000000 
-0.386274 0.291771 0.000000 
-0.373829 -0.362900 0.000000 
-0.384419 -0.351502 0.000000 
-0.376887 -0.336818 0.000000 
-0.376435 -0.322346 0.000000 
-0.368571 -0.308818 0.000000 
-0.376143 -0.295785 0.000000 
-0.366663 -0.282413 0.000000 
-0.375094 -0.270091 0.000000 
-0.366704 -0.256920 0.000000 
-0.374845 -0.243958 0.000000 
-0.366387 -0.230335 0.000000 
-0.373629 -0.216800 0.000000 
-0.364458 -0.203422 0.000000 
-0.370735 -0.189672 0.000000 
-0.361856 0.053557 0.000000 
-0.365011 0.067400 0.000000 
-0.357377 0.080505 0.000000 
-0.365495 0.093616 0.000000 
-0.357770 0.109164 0.000000 
-0.363987 0.122442 0.000000 
-0.352729 0.142903 0.000000 
-0.366019 0.140019 0.000000 
-0.355839 0.152831 0.000000 
-0.363610 0.168427 0.000000 
-0.356184 0.182221 0.000000 
-0.364393 0.196281 0.000000 
-0.356368 0.209444 0.000000 
-0.364954 0.222614 0.000000 
-0.356826 0.235036 0.000000 
-0.366275 0.248542 0.000000 
-0.358462 0.261311 0.000000 
-0.364484 0.276366 0.000000 
-0.369531 0.289728 0.000000 
-0.376405 0.303736 0.000000 
-0.366265 0.315254 0.000000 
-0.362311 -0.374468 0.000000 
-0.358692 -0.360848 0.000000 
-0.367943 -0.348615 0.000000 
-0.358667 -0.337339 0.000000 
-0.362990 -0.324145 0.000000 
-0.353921 -0.309831 0.000000 
-0.360104 -0.295222 0.000000 
-0.349422 -0.281866 0.000000 
-0.358080 -0.269522 0.000000 
-0.350062 -0.256375 0.000000 
-0.358534 -0.243506 0.000000 
-0.350265 -0.229839 0.000000 
-0.357637 -0.216802 0.000000 
-0.357767 0.038891 0.000000 
-0.345676 0.049504 0.000000 
[...]
POINT_DATA 2441
SCALARS u float 1
LOOKUP_TABLE default
67.755703
77.723751
72.799928
16.493606
18.409046
131.037641
6.972140
8.645961
11.028131
5.011435
2.192271
0.336395
1.005179
2.510907
4.525238
3.487431
6.512230
11.307518
8.926307
12.750901
7.945648
10.929430
9.105224
10.624893
10.932363
9.980717
8.352641
14.716724
8.631349
6.971304
2.167861
3.926303
0.926928
1.841523
3.241900
3.322605
5.273004
6.631016
7.175056
8.477187
3.713432
7.490612
6.605758
9.246013
8.831172
9.906201
8.989170
9.065577
11.050322
14.498071
11.178023
27.637554
34.734518
11.844401
10.638879
3.032410
9.729762
1.947047
2.688151
2.923085
1.235469
3.949207
3.384344
5.107653
5.646434
6.576510
6.962768
6.787824
6.528865
5.489759
5.051587
4.713927
7.038584
6.703876
7.661915
7.757294
9.707347
8.300832
10.691731
19.317507
34.131238
30.275149
15.947161
11.116146
7.545006
6.331788
13.315322
12.746353
4.339997
3.942741
1.800046
3.112297
2.980178
1.550657
3.449123
3.039820
5.591287
5.095281
6.502371
6.708594
6.947798
7.046620
6.265509
5.640011
4.935324
4.638035
4.157321
4.789163
4.307479
6.042648
5.144537
6.827320
7.881258
12.935160
11.114261
13.096864
19.287003
14.534556
11.741561
9.554051
8.237393
7.152279
7.039935
13.899371
13.680018
4.793621
4.596888
0.856757
1.110803
2.240737
2.468782
5.593778
5.049521
7.882414
5.429469
5.855805
6.517695
7.369599
7.004933
6.811665
6.450280
4.605213
4.656033
3.944720
2.201774
2.067301
3.297229
4.382517
4.332827
2.803373
4.575600
5.517542
7.902307
10.375442
13.222719
11.263112
10.873893
9.605761
9.319825
8.119646
7.233828
6.458916
6.337303
5.307511
13.250170
13.863132
5.064770
4.942483
0.895493
0.863660
2.047437
2.010202
5.501756
5.429749
6.737955
6.947122
8.835840
8.453327
9.126592
7.658575
8.132223
7.295852
6.027731
4.609051
3.577097
1.997575
3.851362
2.528338
10.099603
2.771846
3.979512
2.713599
3.064763
3.492262
7.317479
8.399752
10.527405
10.867182
8.869107
8.501013
7.409510
8.068520
7.572555
7.215680
6.454992
5.681077
4.922598
4.075631
2.795114
12.090726
5.171744
5.138231
0.873708
0.871364
1.641798
1.822962
6.099137
6.151212
9.818832
9.102985
13.121199
9.460703
9.933888
10.748616
17.191232
14.937631
12.821130
9.398967
6.061705
2.591998
7.117353
9.640031
17.981299
11.654009
7.927928
9.381914
10.231709
10.621555
9.707220
8.389864
6.089407
5.729819
7.216827
6.975852
7.006528
6.394250
5.773673
5.173167
4.168750
3.440855
1.558593
11.576374
4.110739
1.649012
1.207200
1.102846
1.530731
6.060204
6.086114
9.949175
9.807207
13.375259
12.319843
23.977406
22.050515
19.267405
7.683653
8.622356
9.006258
10.005571
10.004995
8.910571
7.890867
4.192654
5.689053
6.473854
5.524756
6.458457
6.080266
5.889024
5.442053
4.576369
3.967218
2.854002
0.588493
9.100791
11.355520
4.103320
2.304963
1.917545
1.128703
5.256468
6.077986
10.007439
10.021062
14.061323
13.811987
26.455053
25.388380
5.559001
7.147227
7.411489
8.789889
7.977684
10.388973
5.714859
7.228396
7.086805
2.783059
3.450575
5.373034
5.425910
5.820547
5.506209
5.017910
4.685581
3.359535
2.451726
-0.001820
0.009724
8.468708
3.728051
3.107210
1.604747
0.464771
3.701877
4.659281
9.299069
10.206505
14.184861
14.240466
27.936726
27.418060
6.451143
5.535351
6.111626
6.361801
7.377116
6.765745
5.604531
7.696105
4.460389
2.523105
4.064218
4.771539
5.615971
5.684979
5.352640
4.931171
4.196480
2.906975
1.532428
0.933493
1.289256
7.865629
8.711151
2.538282
2.364771
2.311790
3.707552
7.282562
6.637214
15.601950
13.318086
28.274016
28.033423
6.449271
5.496519
5.540494
5.870818
6.321160
5.928045
5.508547
7.049054
4.053292
6.438753
5.471150
6.660046
5.193330
5.558153
5.076887
2.845379
2.257383
1.064379
2.041728
3.494549
7.739540
3.082865
2.393366
0.413656
1.239661
5.208382
5.608425
10.004260
10.600377
27.328615
27.977737
5.792283
6.208079
5.516650
5.513752
5.648310
5.938102
5.949981
5.964686
8.447004
10.345735
6.135836
6.771932
5.679985
4.200524
3.354275
2.004004
0.506191
0.213924
3.600631
10.100924
4.016492
3.534393
0.704057
4.316727
4.870081
9.435009
9.191288
12.484569
11.855552
5.495600
5.372484
5.478800
5.509525
5.664239
5.734540
5.981201
6.971938
6.419624
7.880555
6.533626
5.520357
3.680832
3.429968
1.545686
1.457661
0.293347
4.213399
11.877640
6.305010
4.113995
4.611597
4.595990
8.535557
9.051558
14.255882
15.727580
31.642396
26.685750
5.304132
5.478241
5.498804
5.567967
5.762981
5.991612
6.022285
6.935708
11.494237
13.035361
8.068898
6.896806
5.416642
4.807731
2.818632
2.183652
-0.250517
0.232402
4.378800
17.957820
16.110248
6.594826
6.576212
7.348124
8.148016
12.150410
13.877102
18.442426
27.133640
5.361326
5.340249
5.418945
5.538343
5.641305
5.854641
6.001201
6.689064
6.744231
14.274872
8.338041
6.971585
6.678016
4.359415
3.787937
1.587947
1.268269
3.660607
3.519908
22.696289
8.616691
8.024174
6.323866
9.357094
10.486968
13.830047
15.897902
17.560437
17.780682
32.968585
5.128416
5.382298
5.430330
5.602152
5.693661
5.913758
6.035379
6.570767
15.051921
8.536036
8.375011
5.956730
4.885854
2.677667
1.690652
0.583579
2.451753
22.550646
10.193662
8.303782
5.100003
7.402240
9.746806
11.946482
13.587463
15.398704
14.135718
17.246121
19.116773
43.855494
38.993344
4.989084
5.049186
5.394406
5.509580
5.684360
5.811342
5.957245
6.039595
6.546830
15.864960
8.977771
8.349541
5.999500
3.592181
2.508187
0.250520
0.684948
2.823775
20.707429
21.163745
9.177061
7.446325
4.286174
6.927158
10.059523
11.666738
12.340331
13.565381
8.831940
5.760493
9.904079
13.919077
14.613665
32.495917
27.414477
4.935933
5.277687
5.335419
5.571027
5.753280
5.817807
6.140419
6.521754
15.620560
15.209919
8.328628
7.386684
4.389365
3.846933
1.578921
0.600443
1.554397
0.695996
17.551616
13.613220
5.086062
3.742668
6.509460
7.056491
11.902614
11.304093
18.078504
12.906571
7.589884
5.575553
5.619592
9.652939
8.685829
12.742556
10.754326
22.096509
16.786332
4.744721
5.244069
5.637007
5.656232
5.880187
5.952556
6.051867
6.527182
15.183547
7.865813
5.783335
4.512989
2.704100
2.544045
1.300737
0.788998
18.867200
6.322498
9.537669
9.585772
7.786490
12.880819
12.492261
24.407592
17.767353
66.570742
12.491158
18.341718
8.985962
9.862423
6.724690
7.274864
8.170150
7.746510
8.725062
5.890828
5.283053
5.375918
5.582925
5.782878
5.935982
6.042974
6.095173
6.417737
12.865527
8.840354
7.607152
6.226584
4.347303
3.385109
2.315112
1.025183
-0.303587
14.189951
7.448987
8.988803
13.231439
13.445587
21.964316
21.131563
74.627731
24.875342
19.755875
16.802037
15.538173
10.158885
10.027173
7.506457
7.085484
7.972114
7.447256
12.398765
8.248430
4.615065
5.148304
5.511041
5.675558
5.855149
6.017735
6.059318
6.374371
12.758873
6.767793
6.928377
5.027762
4.360629
3.070474
2.132700
0.247582
6.991316
5.443735
12.877036
13.135438
17.114334
18.207604
24.484201
26.842478
45.350071
59.116546
40.349799
21.473979
18.804891
14.150867
12.828356
9.846746
9.060056
7.361141
8.191436
4.253006
4.806162
4.771464
4.815618
4.326312
5.345869
5.356881
5.781805
5.894523
6.038934
6.100324
6.247379
11.830602
7.712961
6.920221
5.584507
4.942148
4.011559
3.350883
2.325711
0.863830
7.754905
7.191215
12.585105
15.696190
17.006618
18.987197
15.568249
34.262732
32.822375
30.173138
16.297928
14.222872
11.307158
11.065243
8.747134
8.413500
6.605282
6.379993
4.145093
5.372114
7.506755
11.250218
6.144059
4.673312
5.198352
5.458720
5.548059
6.023935
6.236967
6.140701
10.824307
6.366474
5.819167
5.166553
4.423098
4.011426
3.151168
2.246043
10.335624
9.862428
14.087431
16.490536
18.644440
17.668008
12.297921
21.929797
27.107727
23.703811
12.316037
10.333951
9.504500
9.452297
9.026466
8.412449
7.276916
7.761182
7.024741
8.676288
15.496487
8.281956
5.084621
5.161676
5.178224
5.278244
5.846425
6.253948
6.077700
8.934378
5.576221
5.914771
5.623652
4.881675
4.603800
3.916405
2.978206
16.657575
14.197031
12.006997
16.582666
18.041202
18.924252
15.501258
13.128250
20.045716
15.198017
8.545372
8.611320
8.924983
8.616088
8.639261
8.815019
8.676779
9.669769
10.170046
20.001186
4.565745
5.111513
4.565233
4.706195
5.043548
5.812852
5.270348
7.299675
6.850710
5.578333
5.902338
5.291622
5.212104
4.380732
4.976478
4.500618
20.809811
19.297200
17.553949
19.314980
18.804928
18.550631
9.985385
11.858730
8.129791
6.708360
7.794160
7.072161
8.393473
8.080421
9.132471
9.747805
8.749324
12.620238
27.751384
36.896110
23.942262
13.976528
7.987714
10.908239
5.206978
5.079713
3.681619
4.273762
4.192851
5.907920
10.492905
4.577167
4.891594
5.530192
5.866500
6.026646
5.329972
6.061091
4.762942
29.615844
20.221585
17.240649
19.113641
18.469806
17.007482
9.839185
20.356010
11.271424
7.433043
5.309135
3.989433
6.842767
5.895341
8.844127
7.787320
9.656959
10.689398
12.407668
13.348343
33.355218
12.713193
9.223557
7.243247
5.715048
3.816631
3.971014
3.578297
3.730925
4.549349
5.937293
11.070747
3.190426
3.964508
5.833422
6.129044
6.585817
5.969505
6.424117
6.300840
34.384661
19.892570
22.912725
21.892393
21.680754
20.063962
18.524161
8.976456
4.848098
5.275152
3.950194
5.897917
6.163132
7.597478
7.567490
6.744093
9.591650
7.291757
9.965222
8.329051
9.104922
7.083426
5.601818
4.328848
4.018219
3.917422
3.893069
4.660439
5.022122
6.914218
8.752989
2.911667
5.905346
6.386514
6.992238
6.915744
7.487263
5.993350
6.211222
40.783362
26.793779
25.014760
21.250898
19.428692
16.194086
21.101151
35.790458
8.405775
12.914192
5.440368
7.892411
5.795358
3.403708
5.224582
4.530589
6.734002
6.642212
6.976298
5.851456
5.290250
4.658267
4.169296
4.179341
4.209712
4.478449
5.316565
6.239122
8.405764
8.016484
6.048909
4.793163
6.233923
6.683051
7.269738
8.103279
7.475865
5.769324
45.959449
31.748313
28.521643
22.194611
17.675612
17.774440
23.120333
50.845123
18.423329
6.068242
8.354847
3.499684
2.552993
3.242724
5.260508
5.559950
6.028671
5.350219
5.077570
4.656741
4.347123
4.280871
4.288627
4.366891
4.898715
4.535204
6.273214
4.867643
9.275239
6.072038
5.378988
5.324402
5.277299
5.190950
5.122669
5.128414
5.275229
2.738382
8.085168
9.640292
3.076694
4.749587
6.103330
7.816572
9.618525
9.080748
5.314482
43.466314
36.409188
31.646009
20.277090
18.562288
21.385982
28.357326
65.546099
25.926555
9.496090
5.978722
1.958354
2.797111
4.376294
4.980698
5.417487
5.124879
4.916761
4.626354
4.405734
4.276139
4.243018
4.132292
4.219440
4.066184
4.373545
4.099943
5.535533
5.211002
8.641919
5.355993
5.539470
5.205740
5.359267
5.154132
5.334893
5.079977
5.258870
4.988839
5.172782
4.900733
5.146486
4.806932
5.189353
4.515806
4.868179
5.289657
4.851231
6.712733
4.808256
5.690006
4.549468
7.063812
7.535323
12.115068
10.791087
1.468326
50.210274
52.466816
22.461752
22.706362
15.377981
21.787514
31.641079
78.213355
26.775254
10.023902
3.370406
2.990853
4.107689
4.825866
5.123181
5.017968
4.835603
4.590007
4.401022
4.222030
4.133194
3.950977
3.917718
3.725696
3.945750
3.727981
4.406986
4.287292
5.599908
5.056286
5.199287
5.142097
5.169869
5.103661
5.109497
5.030718
5.035353
4.953961
4.958304
4.876009
4.877377
4.830469
4.818908
4.839003
4.923856
5.505903
5.855099
7.455133
7.966433
7.996000
7.178965
8.675606
11.250039
10.282152
21.148530
4.149098
68.153995
36.352536
31.806093
10.822340
11.124727
21.010159
32.999817
86.797525
28.621721
8.870871
4.228294
3.286684
4.296016
4.881207
5.050121
4.990488
4.793400
4.552742
4.369614
4.186456
4.055514
3.900547
3.769065
3.587436
3.538046
3.335155
3.581207
3.931012
4.706405
4.778847
5.061497
5.017717
5.079320
5.001167
5.016553
4.946227
4.950358
4.896621
4.886135
4.848022
4.827994
4.809198
4.812348
4.923328
5.200728
5.842508
6.731565
7.849088
8.624407
9.003107
8.712078
10.001485
8.826782
21.513219
20.856475
37.442313
77.819640
54.403873
34.636089
14.868910
14.752481
20.521030
32.747163
88.938772
29.202698
8.829851
3.737822
3.185630
4.447305
5.001507
5.095963
5.005615
4.765389
4.497760
4.330850
4.161410
4.043261
3.940608
3.764900
3.643243
3.388391
3.326890
3.410044
3.852515
4.368867
4.605401
4.826547
4.819455
4.926378
4.845543
4.903583
4.840678
4.876827
4.842693
4.855026
4.842384
4.831440
4.853303
4.865367
4.979314
5.277789
5.644843
6.706343
7.551360
8.825106
8.675716
9.144806
10.073755
12.515015
20.527908
32.736255
23.036340
61.966757
38.342559
28.474592
22.682666
16.587594
21.662888
30.952895
84.116340
29.287651
9.426733
4.579324
2.755369
4.387761
5.140766
5.191899
5.077210
4.734019
4.410854
4.261189
4.104528
4.061520
4.043837
3.886629
3.939241
3.515080
3.844588
3.545819
4.427237
4.323987
4.478369
4.569218
4.560657
4.684734
4.653126
4.737866
4.732287
4.782481
4.807330
4.827432
4.885393
4.877070
4.976415
4.962971
5.063644
5.181006
5.164744
6.111180
6.553961
8.406059
6.890530
8.237492
8.603107
13.828655
10.278934
11.102390
13.279786
49.896460
37.784336
29.189632
20.014356
16.592442
20.472863
27.216112
73.577787
26.987881
30.267272
6.593044
2.473706
2.464367
4.459815
5.497271
5.429516
5.311875
4.727224
4.290474
4.124830
3.974498
4.065625
4.162685
4.134894
4.371465
3.836362
4.325871
4.052146
7.453493
4.174776
3.892889
4.254904
4.009571
4.423213
4.346434
4.566260
4.619040
4.683140
4.852134
4.796649
5.103620
4.928992
5.410316
5.073760
5.700223
5.119880
5.528269
5.164642
5.169941
6.737859
4.447090
5.913710
6.654689
8.452995
9.259158
10.627723
6.784453
44.220946
32.559523
26.877901
20.942354
15.954465
18.904335
21.430276
60.262649
13.500089
19.284514
7.565208
8.766774
4.170053
1.218751
2.934826
4.963365
6.437100
6.100636
5.855057
4.811730
4.110269
3.902904
3.771067
4.032561
4.324115
4.512509
5.305259
4.803435
8.270697
7.422127
4.556449
3.879720
4.133929
4.438199
4.693306
4.936344
5.211670
5.495160
5.474432
3.780970
7.121068
5.482530
4.973237
6.919455
8.013903
8.166558
8.779126
6.157237
38.547099
27.329828
24.482289
20.637694
17.134358
15.986774
19.080501
45.891847
5.573463
9.303467
5.266072
6.891006
6.308093
6.415847
5.900930
2.832396
4.631170
5.874140
9.131753
7.489757
6.777269
4.957973
3.719532
3.576257
3.561918
3.961734
4.513142
4.917976
6.279910
5.421537
4.363998
3.441985
6.032337
7.177527
7.699728
7.165655
7.141078
6.151885
22.046856
20.440308
18.994272
20.048936
14.778475
17.100133
31.958693
4.183891
3.434692
4.093932
5.983253
6.171260
7.056397
6.914252
8.192516
6.735436
7.422047
7.929689
16.108548
9.979627
5.485475
4.514869
3.605993
3.344514
3.465775
3.887596
4.518208
5.855249
11.619086
7.683780
2.938409
5.364742
5.656894
6.680213
7.160627
5.970660
6.121161
33.121889
19.270224
19.316475
16.220687
18.135941
16.058136
7.778904
17.788976
5.801994
3.645107
6.111214
5.982525
7.158642
7.096853
8.000446
8.060293
9.589667
11.164213
19.204170
27.251265
14.987878
6.906312
6.561312
4.762523
3.765261
3.303945
3.628147
3.936705
4.872850
6.630298
12.455332
3.811553
3.302743
5.552498
6.137763
5.909086
6.321561
5.542304
5.587305
27.048567
17.579338
18.347653
17.856489
17.313505
16.239752
8.522161
10.216220
12.566379
9.253137
5.167837
6.079702
7.352957
7.118043
7.637471
7.816472
8.383387
9.435851
12.161666
14.851630
18.255824
7.939930
5.068373
4.956347
3.935245
3.397468
3.835529
4.227143
5.285026
6.233234
7.197621
6.555504
4.858907
5.897543
5.930637
5.515428
5.920459
4.480377
4.641869
19.555581
11.819808
15.470079
17.139917
16.490899
17.151135
8.588170
10.920347
19.413796
15.992565
8.281864
6.909810
7.273974
7.548892
7.468660
7.642763
6.667040
7.592630
7.899663
9.649481
15.642139
15.942110
4.838343
3.857897
4.229593
4.526268
5.519644
6.286460
7.054908
9.566685
8.755362
5.597482
5.674669
5.292771
4.954887
5.060623
3.466510
3.481885
14.754663
14.738608
13.958214
17.414128
17.399073
13.708456
10.622887
13.989370
24.894192
22.482898
11.642690
9.952783
8.598808
7.589957
7.637539
7.503825
7.310142
6.439106
5.302321
6.335493
10.858342
13.815688
4.281721
4.036762
4.042991
4.749053
5.213763
6.617066
6.843374
8.470230
10.483316
6.145160
5.750062
5.341040
5.303147
4.098280
4.032494
2.571936
7.328069
11.259131
13.647372
15.094349
16.954905
16.480817
14.999893
17.125610
15.029020
13.426817
10.405227
9.464407
8.051521
7.890803
6.802138
6.975526
5.898428
3.570377
5.050632
7.678672
2.565137
4.047004
4.339240
4.822361
5.564908
5.980178
6.277724
7.895749
7.693282
12.152660
6.760201
6.238775
4.946701
4.516554
3.148926
3.565635
0.524162
7.096922
7.098577
6.823844
13.307663
17.138889
18.303086
22.052530
21.077772
12.757753
27.530139
26.624417
12.728238
11.536611
8.709157
8.300064
7.006077
6.969735
5.941767
6.028063
2.906947
3.924482
2.397905
3.980004
4.792536
5.400038
5.997979
6.360219
6.890752
7.528569
12.830435
7.729654
7.241704
5.936323
4.313256
3.767481
2.218635
2.501767
7.852498
6.007704
12.005803
13.160474
17.699860
20.226099
24.967785
35.031600
33.344491
29.899623
20.236521
16.529710
7.563197
9.693217
6.772245
7.044715
6.520106
6.111119
5.455994
4.128801
5.982010
2.731667
4.641074
4.716883
5.174864
5.803620
6.252838
6.575881
7.639845
14.806169
8.148801
6.199574
5.746551
3.373229
3.008457
1.319678
0.398528
17.102171
22.604983
8.594992
7.713576
11.709473
11.392804
18.176589
33.660561
55.613018
33.905622
20.111041
12.330499
13.751215
6.772571
9.152811
6.719158
7.344456
8.672410
7.003531
13.789324
9.829387
3.174560
3.185837
4.754757
5.329691
5.720041
6.025145
6.471386
6.381349
7.391172
15.476615
8.290718
8.411587
5.700671
4.651452
1.794020
2.620711
0.759848
-0.327710
26.359005
7.862767
8.505507
11.441959
8.065628
17.625601
11.894393
24.720819
13.057086
19.953837
12.079535
10.411004
4.950511
7.272982
13.715161
10.326925
22.414602
17.801300
3.749240
4.392371
4.843011
5.481623
5.736976
6.315912
6.323403
7.220133
15.469214
15.554982
7.182303
6.657670
4.018036
3.686958
0.413056
1.086000
1.933530
11.792560
11.281159
3.439704
9.119194
8.738828
10.620652
19.328383
12.096507
12.403087
8.917980
4.291640
12.169940
12.572052
32.580049
27.027361
3.853479
4.681285
4.849271
5.298236
5.576525
5.834094
6.037252
7.001708
9.092190
8.732943
5.538918
5.895683
2.751206
2.263358
-0.006006
3.092554
29.481029
27.753969
8.549401
5.384861
5.804901
11.548999
15.835673
14.919667
12.350686
13.217521
11.115883
13.039058
38.024638
4.138938
4.895252
5.265271
5.465465
5.810668
5.868778
6.133713
6.878875
15.793615
15.856088
8.526404
8.463698
5.036318
4.031244
2.456097
1.801293
0.097589
3.595808
25.400404
11.650740
8.464993
8.368468
9.697296
13.566997
14.497967
15.633170
16.318930
18.243178
40.269932
4.353004
5.008803
5.214575
5.348007
5.591808
5.762679
6.091412
6.718751
15.049977
8.404703
6.964135
6.052021
3.917663
2.800751
1.300734
-0.307532
4.231039
22.720718
6.851951
8.404336
6.785554
10.814415
11.425170
16.082416
18.820042
27.535841
26.674065
4.833237
5.130444
5.159228
5.347120
5.508896
5.669592
5.959979
6.745453
12.587821
14.057770
8.282712
6.892413
5.160695
4.470241
2.137287
1.609699
0.636617
4.118965
19.791931
14.465015
4.911281
5.431856
7.027651
6.913509
12.320975
12.203083
16.007237
10.666126
5.144320
5.316122
5.366997
5.496662
5.615744
5.739276
5.770561
6.642215
6.884598
8.319166
6.534871
5.673401
3.548769
2.925120
1.577751
-0.284507
4.193634
3.801181
11.488793
4.244614
2.731884
2.367385
2.524745
7.465472
7.606905
11.001388
10.728469
26.248626
27.180051
5.666888
5.392315
5.387224
5.435223
5.505722
5.683054
5.514134
6.556299
9.992846
11.653620
6.569132
7.122720
5.545075
4.382360
3.044733
1.689429
0.403534
0.228446
4.269906
8.000683
7.309299
1.821707
1.671394
4.217317
4.413172
7.611088
6.462192
13.742469
12.833659
27.129810
27.228865
6.100717
5.481584
5.497635
5.717603
5.672913
5.805586
6.539975
6.908477
6.110294
8.268438
6.040566
7.331876
5.256289
5.607084
4.626200
2.921075
2.106940
0.620096
3.092328
3.587435
6.501411
1.857684
1.795527
1.616832
3.143725
4.889501
5.086108
9.348167
9.939298
13.919794
14.093839
27.616325
27.642628
6.687225
5.612745
5.587446
6.132659
5.933780
6.282000
5.002930
3.810839
3.038515
3.951384
4.698382
5.401973
5.790345
5.824615
5.198250
4.935308
3.875549
2.424411
1.627270
0.734266
2.373377
7.052321
7.641969
1.895810
1.225026
2.594837
1.979466
5.424212
6.072372
9.930070
9.985416
14.119831
14.070545
27.329664
26.644036
6.782979
5.751590
6.007138
7.095690
7.043895
7.311403
6.491465
6.947532
9.977191
5.863378
3.647758
4.114557
5.484844
5.562021
5.721796
5.414320
4.852545
4.181454
3.280621
1.955537
0.023465
0.545033
3.142011
3.848975
1.032132
0.686798
1.863824
1.970638
6.075336
6.117629
9.932693
9.885437
13.876376
13.583439
25.506463
24.243176
7.583350
6.760184