# vtk DataFile Version 2.0
Unstructured Grid Example
ASCII
DATASET UNSTRUCTURED_GRID
POINTS 613 float
-0.000230 0.471058 0.000000 
0.471544 0.129713 0.000000 
-0.471623 0.129481 0.000000 
0.500000 -0.022282 0.000000 
-0.500000 -0.022606 0.000000 
0.000000 -0.500000 0.000000 
-0.486117 -0.158274 0.000000 
-0.493507 -0.123381 0.000000 
-0.498164 -0.088879 0.000000 
-0.475555 -0.067454 0.000000 
-0.500331 -0.053075 0.000000 
-0.465552 -0.010443 0.000000 
-0.498405 0.007179 0.000000 
-0.494708 0.038569 0.000000 
-0.488843 0.070686 0.000000 
-0.481373 0.100561 0.000000 
-0.465722 -0.220369 0.000000 
-0.476626 -0.190887 0.000000 
-0.453537 -0.169001 0.000000 
-0.464949 -0.135402 0.000000 
-0.441913 -0.111552 0.000000 
-0.469670 -0.101396 0.000000 
-0.448970 -0.075373 0.000000 
-0.465074 -0.039815 0.000000 
-0.433172 -0.023631 0.000000 
-0.467232 0.017873 0.000000 
-0.440600 0.032728 0.000000 
-0.464440 0.051578 0.000000 
-0.454693 0.081683 0.000000 
-0.446779 0.108998 0.000000 
-0.442067 0.142922 0.000000 
-0.459568 0.165526 0.000000 
-0.445446 0.197772 0.000000 
-0.437268 -0.277930 0.000000 
-0.452499 -0.249680 0.000000 
-0.429383 -0.221865 0.000000 
-0.439113 -0.193732 0.000000 
-0.414058 -0.164931 0.000000 
-0.436241 -0.146003 0.000000 
-0.414742 -0.126858 0.000000 
-0.422198 -0.089355 0.000000 
-0.399241 -0.070151 0.000000 
-0.430671 -0.053357 0.000000 
-0.399343 -0.010021 0.000000 
-0.430633 0.005773 0.000000 
-0.411762 0.039968 0.000000 
-0.430884 0.064379 0.000000 
-0.416435 0.090201 0.000000 
-0.419089 0.121182 0.000000 
-0.408045 0.148595 0.000000 
-0.425404 0.173459 0.000000 
-0.408409 0.199663 0.000000 
-0.430137 0.227056 0.000000 
-0.413679 0.254131 0.000000 
-0.401391 -0.330400 0.000000 
-0.420152 -0.304928 0.000000 
-0.400403 -0.274927 0.000000 
-0.415805 -0.248931 0.000000 
-0.392879 -0.220761 0.000000 
-0.404491 -0.193552 0.000000 
-0.379240 -0.166224 0.000000 
-0.387915 -0.138060 0.000000 
-0.395187 -0.104042 0.000000 
-0.400382 -0.039548 0.000000 
-0.396135 0.020284 0.000000 
-0.394647 0.065553 0.000000 
-0.378415 0.088385 0.000000 
-0.390626 0.113989 0.000000 
-0.377909 0.139781 0.000000 
-0.387575 0.172239 0.000000 
-0.370238 0.194946 0.000000 
-0.391544 0.224215 0.000000 
-0.381146 0.252328 0.000000 
-0.393840 0.282324 0.000000 
-0.357963 -0.378027 0.000000 
-0.380966 -0.354459 0.000000 
-0.365026 -0.322225 0.000000 
-0.383078 -0.299330 0.000000 
-0.362285 -0.271391 0.000000 
-0.378524 -0.246693 0.000000 
-0.355677 -0.218873 0.000000 
-0.368486 -0.193125 0.000000 
-0.345089 0.034687 0.000000 
-0.373864 0.044199 0.000000 
-0.354623 0.071443 0.000000 
-0.355267 0.111229 0.000000 
-0.352337 0.160225 0.000000 
-0.336415 0.188919 0.000000 
-0.354800 0.221557 0.000000 
-0.353933 0.252987 0.000000 
-0.359588 0.283910 0.000000 
-0.372122 0.308949 0.000000 
-0.323754 -0.371548 0.000000 
-0.347336 -0.346377 0.000000 
-0.327571 -0.317124 0.000000 
-0.343836 -0.294103 0.000000 
-0.323104 -0.267962 0.000000 
-0.340627 -0.243782 0.000000 
-0.314533 0.024535 0.000000 
-0.325848 0.058485 0.000000 
-0.331043 0.095785 0.000000 
-0.345155 0.140322 0.000000 
-0.318925 0.215231 0.000000 
-0.326545 0.245126 0.000000 
-0.329535 0.278703 0.000000 
-0.332376 0.310605 0.000000 
-0.351665 0.330823 0.000000 
-0.330329 0.351000 0.000000 
-0.307331 -0.420108 0.000000 
-0.332908 -0.400359 0.000000 
-0.298658 -0.390040 0.000000 
-0.313999 -0.345549 0.000000 
-0.293223 -0.322650 0.000000 
-0.302399 -0.291858 0.000000 
-0.290682 0.047778 0.000000 
-0.302435 0.075071 0.000000 
-0.300590 0.103399 0.000000 
-0.314943 0.130249 0.000000 
-0.296491 0.243334 0.000000 
-0.300054 0.271522 0.000000 
-0.300518 0.300073 0.000000 
-0.304456 0.332453 0.000000 
-0.306523 0.370780 0.000000 
-0.281765 -0.437061 0.000000 
-0.269041 -0.413990 0.000000 
-0.270011 -0.382952 0.000000 
-0.286006 -0.356598 0.000000 
-0.271268 -0.300787 0.000000 
-0.283534 0.014231 0.000000 
-0.261352 0.042373 0.000000 
-0.271361 0.080669 0.000000 
-0.248870 0.108264 0.000000 
-0.278417 0.118086 0.000000 
-0.270287 0.270311 0.000000 
-0.247106 0.290153 0.000000 
-0.273986 0.310083 0.000000 
-0.278732 0.349449 0.000000 
-0.281502 0.388930 0.000000 
-0.255676 -0.451701 0.000000 
-0.235558 -0.428824 0.000000 
-0.241303 -0.396869 0.000000 
-0.249447 -0.361642 0.000000 
-0.260900 -0.333477 0.000000 
-0.238137 -0.311836 0.000000 
-0.254324 -0.277787 0.000000 
-0.237017 -0.255031 0.000000 
-0.253968 0.004415 0.000000 
-0.232942 0.030789 0.000000 
-0.243366 0.069938 0.000000 
-0.220146 0.098733 0.000000 
-0.223342 0.307385 0.000000 
-0.250822 0.329294 0.000000 
-0.225940 0.345897 0.000000 
-0.253575 0.367945 0.000000 
-0.254330 0.405993 0.000000 
-0.198003 -0.475582 0.000000 
-0.226904 -0.464923 0.000000 
-0.203188 -0.437654 0.000000 
-0.209845 -0.404467 0.000000 
-0.219965 -0.374124 0.000000 
-0.224051 -0.342634 0.000000 
-0.203305 -0.323131 0.000000 
-0.220557 -0.288640 0.000000 
-0.201516 -0.265856 0.000000 
-0.219761 -0.232714 0.000000 
-0.222979 -0.005848 0.000000 
-0.205133 0.037379 0.000000 
-0.215324 0.065489 0.000000 
-0.189628 0.088631 0.000000 
-0.198851 0.322377 0.000000 
-0.199820 0.360386 0.000000 
-0.226641 0.383938 0.000000 
-0.225622 0.421393 0.000000 
-0.163973 -0.485278 0.000000 
-0.177459 -0.456002 0.000000 
-0.181137 -0.406805 0.000000 
-0.188007 -0.372375 0.000000 
-0.190444 -0.359478 0.000000 
-0.170807 -0.333370 0.000000 
-0.187070 -0.299104 0.000000 
-0.165516 -0.279172 0.000000 
-0.191129 -0.234525 0.000000 
-0.198922 -0.206064 0.000000 
-0.185756 -0.018123 0.000000 
-0.199063 0.009097 0.000000 
-0.172359 0.027024 0.000000 
-0.181381 0.057961 0.000000 
-0.173600 0.335293 0.000000 
-0.198671 0.397988 0.000000 
-0.169816 0.409983 0.000000 
-0.195672 0.434901 0.000000 
-0.143410 -0.459309 0.000000 
-0.164415 -0.431742 0.000000 
-0.144459 -0.408322 0.000000 
-0.155913 -0.383311 0.000000 
-0.152140 -0.308941 0.000000 
-0.132200 -0.283260 0.000000 
-0.169995 -0.251432 0.000000 
-0.163340 -0.217276 0.000000 
-0.181482 -0.183877 0.000000 
-0.163584 -0.161126 0.000000 
-0.149022 -0.030135 0.000000 
-0.161573 -0.000968 0.000000 
-0.147988 0.047676 0.000000 
-0.157312 0.077971 0.000000 
-0.147619 0.346213 0.000000 
-0.172815 0.372886 0.000000 
-0.145066 0.383336 0.000000 
-0.164773 0.446367 0.000000 
-0.131688 -0.492120 0.000000 
-0.111790 -0.462613 0.000000 
-0.127230 -0.430909 0.000000 
-0.117963 -0.392345 0.000000 
-0.142478 -0.250114 0.000000 
-0.128679 -0.224202 0.000000 
-0.146491 -0.192892 0.000000 
-0.127937 -0.170087 0.000000 
-0.145926 -0.138572 0.000000 
-0.128554 -0.116154 0.000000 
-0.119836 -0.060576 0.000000 
-0.126941 -0.008946 0.000000 
-0.137230 0.020724 0.000000 
-0.110371 0.041956 0.000000 
-0.124786 0.067258 0.000000 
-0.120909 0.355192 0.000000 
-0.116724 0.391684 0.000000 
-0.140299 0.419898 0.000000 
-0.133188 0.455721 0.000000 
-0.100051 -0.496826 0.000000 
-0.082507 -0.464923 0.000000 
-0.098980 -0.428133 0.000000 
-0.086668 -0.397173 0.000000 
-0.112319 -0.257894 0.000000 
-0.093830 -0.234391 0.000000 
-0.110355 -0.201533 0.000000 
-0.092016 -0.178359 0.000000 
-0.109708 -0.147172 0.000000 
-0.092629 -0.123603 0.000000 
-0.111261 -0.093552 0.000000 
-0.090510 -0.067294 0.000000 
-0.111730 -0.034919 0.000000 
-0.090032 -0.009734 0.000000 
-0.104616 0.013788 0.000000 
-0.087806 0.062553 0.000000 
-0.093423 0.362267 0.000000 
-0.087808 0.397675 0.000000 
-0.110312 0.427440 0.000000 
-0.101266 0.462925 0.000000 
-0.068746 -0.499759 0.000000 
-0.051935 -0.466745 0.000000 
-0.069946 -0.433176 0.000000 
-0.056172 -0.399996 0.000000 
-0.075313 -0.210801 0.000000 
-0.056847 -0.187104 0.000000 
-0.073466 -0.155015 0.000000 
-0.058560 -0.129518 0.000000 
-0.076281 -0.097690 0.000000 
-0.058905 -0.067499 0.000000 
-0.077477 -0.038307 0.000000 
-0.060699 -0.005557 0.000000 
-0.076643 0.026909 0.000000 
-0.055169 0.051299 0.000000 
-0.064466 0.080860 0.000000 
-0.064966 0.367450 0.000000 
-0.059639 0.404788 0.000000 
-0.080539 0.433768 0.000000 
-0.068796 0.468050 0.000000 
-0.037460 -0.501168 0.000000 
-0.020464 -0.453512 0.000000 
-0.040080 -0.430829 0.000000 
-0.023484 -0.401437 0.000000 
-0.038377 -0.163193 0.000000 
-0.028881 -0.125990 0.000000 
-0.044303 -0.097223 0.000000 
-0.027399 -0.065846 0.000000 
-0.045365 -0.036433 0.000000 
-0.027207 -0.009826 0.000000 
-0.043006 0.020874 0.000000 
-0.023903 0.049617 0.000000 
-0.034453 0.082482 0.000000 
-0.012505 0.106794 0.000000 
-0.050123 0.113971 0.000000 
-0.050183 0.149163 0.000000 
-0.050209 0.182642 0.000000 
-0.017756 0.202389 0.000000 
-0.050225 0.213949 0.000000 
-0.050241 0.244447 0.000000 
-0.050259 0.274543 0.000000 
-0.050285 0.304299 0.000000 
-0.050339 0.332713 0.000000 
-0.033783 0.354426 0.000000 
-0.034194 0.383731 0.000000 
-0.028376 0.414534 0.000000 
-0.050013 0.439615 0.000000 
-0.035227 0.471018 0.000000 
-0.019460 -0.480320 0.000000 
0.012185 -0.466761 0.000000 
-0.003136 -0.430920 0.000000 
0.009137 -0.401647 0.000000 
-0.011351 -0.150927 0.000000 
0.003366 -0.119163 0.000000 
-0.011899 -0.093087 0.000000 
0.008152 -0.065641 0.000000 
-0.010653 -0.039249 0.000000 
0.006753 -0.013754 0.000000 
-0.010695 0.017543 0.000000 
0.008467 0.043225 0.000000 
-0.002375 0.074985 0.000000 
0.021466 0.097367 0.000000 
-0.022837 0.134007 0.000000 
-0.001989 0.154289 0.000000 
-0.021976 0.172096 0.000000 
0.013275 0.188719 0.000000 
-0.016820 0.232276 0.000000 
0.016591 0.248330 0.000000 
-0.016866 0.262477 0.000000 
-0.017302 0.293146 0.000000 
-0.016041 0.324297 0.000000 
0.018196 0.339589 0.000000 
-0.005126 0.358146 0.000000 
-0.001870 0.389583 0.000000 
-0.016784 0.444425 0.000000 
0.017733 0.443196 0.000000 
0.030084 -0.501221 0.000000 
0.043330 -0.468274 0.000000 
0.026925 -0.435268 0.000000 
0.039266 -0.400932 0.000000 
0.014949 -0.150542 0.000000 
0.035462 -0.126756 0.000000 
0.023818 -0.094097 0.000000 
0.043079 -0.067113 0.000000 
0.026222 -0.037734 0.000000 
0.045353 -0.008911 0.000000 
0.021251 0.010392 0.000000 
0.039463 0.030283 0.000000 
0.030653 0.065768 0.000000 
[...]
POINT_DATA 613
SCALARS u float 1
LOOKUP_TABLE default
-20.006472
-23.879115
-34.905507
-12.008358
-14.720799
-27.266523
7.881954
4.304163
-1.126157
-3.743551
-7.022719
-5.429742
-13.881959
-14.222690
-18.807218
-32.455815
14.649516
12.057562
0.314332
-2.305195
-4.565890
-2.544009
-3.702995
-4.362420
-2.898831
-8.591474
-4.726077
-7.780358
-9.311223
-10.763901
-4.565708
-13.754172
-5.803903
14.393792
14.548724
0.008909
0.031431
-7.289377
-4.456286
-4.701375
-4.865495
-6.851577
-4.243826
0.607749
-0.203841
0.267281
0.746364
-3.633434
0.522194
-1.814756
-5.773650
-4.008671
-3.586831
-1.554823
13.153940
14.048139
0.130258
0.438378
-6.836707
-6.334212
-23.792828
-18.732966
-12.486946
-0.389823
1.077390
0.578447
2.853833
1.735823
5.385308
0.008964
-1.454608
-2.338872
-1.446442
0.161179
10.076242
11.807705
1.236412
0.485489
-7.025202
-6.640133
-26.563005
-26.339897
-0.268136
-1.628696
0.427341
-0.644894
5.062314
1.593796
-1.378416
-0.752385
-1.104171
1.497433
2.941556
-0.664729
-7.698256
-5.351728
-22.086823
-24.660327
-0.283316
-0.571400
0.583871
1.910661
-2.908269
-2.515125
-1.261931
-0.182734
1.460259
1.206997
12.462394
10.563293
3.201438
-0.903971
3.206748
-18.467218
-0.393469
-0.179306
-0.558375
1.069793
-5.070955
-2.944448
-2.273203
-0.367563
1.962066
3.686137
1.002152
1.958174
-2.853763
17.611868
-0.541460
-0.296444
-0.390334
-0.715992
-0.465282
-6.129661
-6.768635
-2.525450
-0.871799
1.831260
-3.712114
1.248277
-9.394465
-1.101239
3.612109
-3.569643
20.189111
15.954454
-0.678716
-0.482069
-0.403605
-0.688166
-6.956109
-2.367071
-2.222570
-1.001625
1.230540
-5.686713
-5.760472
-10.369890
-16.854859
-30.211033
-23.361330
-7.987944
-2.357679
-2.070131
5.953452
-1.196484
-0.153739
-0.349453
-0.739598
-6.087114
-2.030624
-1.105790
0.591496
-1.555653
-3.842809
-4.394102
-11.256959
-18.215553
-21.736991
-10.175493
-7.647390
-2.936976
0.853929
-1.471975
0.097036
-0.424137
-0.446531
-4.844572
-1.225540
-1.227658
0.067771
-4.650539
-6.021414
-3.600025
-6.953197
-15.463902
-11.189854
-5.142474
-4.821617
-6.075410
-10.566394
-0.980638
0.077125
-0.783852
-1.238924
-3.359936
-1.822003
-1.529095
-0.159727
-3.826708
-4.743868
-2.007445
-2.361536
-4.680560
-5.015646
-4.814876
-6.522842
-17.067155
-23.193493
-11.324962
-3.147556
-2.627670
-1.153805
-1.096986
-1.657456
-1.317617
-1.107396
0.113027
-3.533778
-0.432692
-1.608874
0.737830
-6.909201
-1.003446
-3.368906
-2.481526
-5.854531
-6.060880
-18.867379
-8.355270
-6.394434
-3.462565
-2.577670
-4.331581
1.099603
-1.018573
-0.784289
-0.104657
-3.527688
-3.238847
-3.570470
-3.012399
5.038030
11.057891
-2.243528
0.511637
-3.385236
-1.863141
-3.920552
-2.660817
-2.719416
-1.850398
-5.122046
1.334859
-0.164515
-1.116374
-3.210597
19.751019
-9.022945
0.224407
-3.305888
9.620023
1.641486
0.758990
0.841867
-1.318758
-1.515428
-2.317819
-2.873641
-2.606062
-3.826099
-5.985339
-4.523651
-4.444657
-4.447077
-4.453905
-4.525633
-4.715660
-3.547192
-0.095960
-3.736464
-5.749277
-10.521353
0.337362
3.897359
-22.272575
-15.122482
-9.608616
-4.444462
6.967841
2.395774
3.168254
1.544589
0.117073
-0.677228
-1.668348
-2.006662
-2.825210
-3.645041
-4.503881
-4.561196
-4.532402
-4.584357
-4.483681
-4.447841
-4.346155
-4.328442
-5.899217
-5.382523
-5.749675
-5.129058
-16.811512
-8.580242
1.371993
-0.136297
-8.590195
2.607991
7.151551
1.277115
2.518905
0.043117
-0.229343
-2.373524
-1.484009
-1.171046
-2.342347
-5.827291
-4.496346
-5.317572
-4.385925
-4.448964
-4.484201
-4.772322
-4.409058
-4.455975
-4.250270
-2.018656
-4.334581
-10.902683
-7.742210
2.321663
-5.812928
-2.398630
-1.717510
6.540599
10.844654
9.366792
-0.676503
-0.224611
-2.946037
-2.000338
-3.597557
-2.930459
-1.445813
-1.805165
-6.721269
-4.347405
-4.636785
-4.904942
-2.170471
-0.696946
-0.952320
-1.120891
-1.615643
-3.310727
-3.647042
-2.505352
2.586140
-1.760911
4.577111
-3.055553
-1.685746
-6.581596
-5.897326
-21.349033
-4.539664
-2.665690
-2.624963
-2.827213
-3.926459
-1.905425
-0.281212
-0.263773
0.138017
-3.104569
-4.226697
-3.544110
-2.554690
-13.467153
-7.921040
-4.933448
-3.639030
-5.964640
-7.869043
-20.570043
-13.723247
-5.705672
-1.649516
-0.039349
-2.743502
-1.409684
-0.141401
0.471005
-2.502792
-5.353326
-5.666679
-7.778299
-16.619500
-7.518853
-5.970903
-4.001449
-5.130834
-11.073874
-16.712433
-3.142323
-1.673764
-0.261301
-2.542038
-3.364516
-1.206364
-1.184659
-1.115225
-4.083338
-4.480787
-8.717755
-7.753476
-23.519544
-10.168547
-2.302959
-3.086845
2.147051
-4.291177
-0.813411
-0.166589
-0.415221
-0.808287
-4.563682
-1.795796
-1.166708
-0.022176
-5.720181
-4.329511
-10.258651
-36.220860
-19.990494
-5.876842
-2.760051
17.335483
8.890101
-0.386405
-0.178101
-0.564609
-0.542031
-5.869372
-1.719521
-1.998711
0.509791
0.077536
0.569410
-2.587311
-14.020867
2.134346
-21.108053
-4.114021
21.765157
-0.657458
-0.326971
-0.448909
-0.532556
-3.905391
-6.270461
-1.054730
-1.188236
0.845750
2.672802
4.369435
3.314151
1.768805
10.530316
-0.466865
-0.408224
-0.288637
-0.399964
-2.777394
-2.850572
0.097786
0.474811
10.864303
3.383810
1.539668
-8.276551
-0.188101
-0.305164
-0.414118
-0.274598
-7.390523
-7.707226
-1.833003
-1.719589
3.180839
1.530803
8.354136
8.338837
0.328967
-2.810324
-15.774530
-20.678761
-1.169999
-0.173547
0.658012
1.414897
0.754283
-4.293326
-1.851595
-1.590814
-0.798432
-1.762917
-0.953227
-1.107668
-5.219981
-6.810720
-24.378416
-25.155449
-0.252578
-0.494482
1.427387
6.235707
6.530481
-1.341759
-1.317356
-1.360969
-0.621153
2.964757
3.502664
6.087074
11.238135
0.012487
-0.107100
-6.585850
-6.839925
-23.894517
-18.666937
-10.867957
4.471399
1.343025
3.275438
1.927622
-1.348069
-0.924271
-3.185390
-2.087417
-0.448815
1.645687
13.448591
14.229241
0.043530
0.149535
-6.357425
-6.063282
-9.154855
-6.683893
-4.448244
-4.299787
-0.730640
-1.754823
-0.765128
0.974379
0.090827
-0.996807
-2.381420
-4.461183
-5.005046
-5.469412
-2.819987
14.577678
13.880322
0.005005
-1.156945
-2.451187
-1.341657
-4.585584
-3.723270
-4.926145
-3.721524
-3.708215
-5.828386
-7.434720
-12.186522
-6.349562
-11.791568
-9.000688
11.378696
6.885042
4.562245
0.854616
-5.669255
-4.644288
-12.890588
-6.583809
-11.128397
-10.004516
-6.412065
-21.135212
