# vtk DataFile Version 2.0
Unstructured Grid Example
ASCII
DATASET UNSTRUCTURED_GRID
POINTS 613 float
-0.000230 0.471058 0.000000 
0.471544 0.129713 0.000000 
-0.471623 0.129481 0.000000 
0.500000 -0.022282 0.000000 
-0.500000 -0.022606 0.000000 
0.000000 -0.500000 0.000000 
-0.486117 -0.158274 0.000000 
-0.493507 -0.123381 0.000000 
-0.498164 -0.088879 0.000000 
-0.475555 -0.067454 0.000000 
-0.500331 -0.053075 0.000000 
-0.465552 -0.010443 0.000000 
-0.498405 0.007179 0.000000 
-0.494708 0.038569 0.000000 
-0.488843 0.070686 0.000000 
-0.481373 0.100561 0.000000 
-0.465722 -0.220369 0.000000 
-0.476626 -0.190887 0.000000 
-0.453537 -0.169001 0.000000 
-0.464949 -0.135402 0.000000 
-0.441913 -0.111552 0.000000 
-0.469670 -0.101396 0.000000 
-0.448970 -0.075373 0.000000 
-0.465074 -0.039815 0.000000 
-0.433172 -0.023631 0.000000 
-0.467232 0.017873 0.000000 
-0.440600 0.032728 0.000000 
-0.464440 0.051578 0.000000 
-0.454693 0.081683 0.000000 
-0.446779 0.108998 0.000000 
-0.442067 0.142922 0.000000 
-0.459568 0.165526 0.000000 
-0.445446 0.197772 0.000000 
-0.437268 -0.277930 0.000000 
-0.452499 -0.249680 0.000000 
-0.429383 -0.221865 0.000000 
-0.439113 -0.193732 0.000000 
-0.414058 -0.164931 0.000000 
-0.436241 -0.146003 0.000000 
-0.414742 -0.126858 0.000000 
-0.422198 -0.089355 0.000000 
-0.399241 -0.070151 0.000000 
-0.430671 -0.053357 0.000000 
-0.399343 -0.010021 0.000000 
-0.430633 0.005773 0.000000 
-0.411762 0.039968 0.000000 
-0.430884 0.064379 0.000000 
-0.416435 0.090201 0.000000 
-0.419089 0.121182 0.000000 
-0.408045 0.148595 0.000000 
-0.425404 0.173459 0.000000 
-0.408409 0.199663 0.000000 
-0.430137 0.227056 0.000000 
-0.413679 0.254131 0.000000 
-0.401391 -0.330400 0.000000 
-0.420152 -0.304928 0.000000 
-0.400403 -0.274927 0.000000 
-0.415805 -0.248931 0.000000 
-0.392879 -0.220761 0.000000 
-0.404491 -0.193552 0.000000 
-0.379240 -0.166224 0.000000 
-0.387915 -0.138060 0.000000 
-0.395187 -0.104042 0.000000 
-0.400382 -0.039548 0.000000 
-0.396135 0.020284 0.000000 
-0.394647 0.065553 0.000000 
-0.378415 0.088385 0.000000 
-0.390626 0.113989 0.000000 
-0.377909 0.139781 0.000000 
-0.387575 0.172239 0.000000 
-0.370238 0.194946 0.000000 
-0.391544 0.224215 0.000000 
-0.381146 0.252328 0.000000 
-0.393840 0.282324 0.000000 
-0.357963 -0.378027 0.000000 
-0.380966 -0.354459 0.000000 
-0.365026 -0.322225 0.000000 
-0.383078 -0.299330 0.000000 
-0.362285 -0.271391 0.000000 
-0.378524 -0.246693 0.000000 
-0.355677 -0.218873 0.000000 
-0.368486 -0.193125 0.000000 
-0.345089 0.034687 0.000000 
-0.373864 0.044199 0.000000 
-0.354623 0.071443 0.000000 
-0.355267 0.111229 0.000000 
-0.352337 0.160225 0.000000 
-0.336415 0.188919 0.000000 
-0.354800 0.221557 0.000000 
-0.353933 0.252987 0.000000 
-0.359588 0.283910 0.000000 
-0.372122 0.308949 0.000000 
-0.323754 -0.371548 0.000000 
-0.347336 -0.346377 0.000000 
-0.327571 -0.317124 0.000000 
-0.343836 -0.294103 0.000000 
-0.323104 -0.267962 0.000000 
-0.340627 -0.243782 0.000000 
-0.314533 0.024535 0.000000 
-0.325848 0.058485 0.000000 
-0.331043 0.095785 0.000000 
-0.345155 0.140322 0.000000 
-0.318925 0.215231 0.000000 
-0.326545 0.245126 0.000000 
-0.329535 0.278703 0.000000 
-0.332376 0.310605 0.000000 
-0.351665 0.330823 0.000000 
-0.330329 0.351000 0.000000 
-0.307331 -0.420108 0.000000 
-0.332908 -0.400359 0.000000 
-0.298658 -0.390040 0.000000 
-0.313999 -0.345549 0.000000 
-0.293223 -0.322650 0.000000 
-0.302399 -0.291858 0.000000 
-0.290682 0.047778 0.000000 
-0.302435 0.075071 0.000000 
-0.300590 0.103399 0.000000 
-0.314943 0.130249 0.000000 
-0.296491 0.243334 0.000000 
-0.300054 0.271522 0.000000 
-0.300518 0.300073 0.000000 
-0.304456 0.332453 0.000000 
-0.306523 0.370780 0.000000 
-0.281765 -0.437061 0.000000 
-0.269041 -0.413990 0.000000 
-0.270011 -0.382952 0.000000 
-0.286006 -0.356598 0.000000 
-0.271268 -0.300787 0.000000 
-0.283534 0.014231 0.000000 
-0.261352 0.042373 0.000000 
-0.271361 0.080669 0.000000 
-0.248870 0.108264 0.000000 
-0.278417 0.118086 0.000000 
-0.270287 0.270311 0.000000 
-0.247106 0.290153 0.000000 
-0.273986 0.310083 0.000000 
-0.278732 0.349449 0.000000 
-0.281502 0.388930 0.000000 
-0.255676 -0.451701 0.000000 
-0.235558 -0.428824 0.000000 
-0.241303 -0.396869 0.000000 
-0.249447 -0.361642 0.000000 
-0.260900 -0.333477 0.000000 
-0.238137 -0.311836 0.000000 
-0.254324 -0.277787 0.000000 
-0.237017 -0.255031 0.000000 
-0.253968 0.004415 0.000000 
-0.232942 0.030789 0.000000 
-0.243366 0.069938 0.000000 
-0.220146 0.098733 0.000000 
-0.223342 0.307385 0.000000 
-0.250822 0.329294 0.000000 
-0.225940 0.345897 0.000000 
-0.253575 0.367945 0.000000 
-0.254330 0.405993 0.000000 
-0.198003 -0.475582 0.000000 
-0.226904 -0.464923 0.000000 
-0.203188 -0.437654 0.000000 
-0.209845 -0.404467 0.000000 
-0.219965 -0.374124 0.000000 
-0.224051 -0.342634 0.000000 
-0.203305 -0.323131 0.000000 
-0.220557 -0.288640 0.000000 
-0.201516 -0.265856 0.000000 
-0.219761 -0.232714 0.000000 
-0.222979 -0.005848 0.000000 
-0.205133 0.037379 0.000000 
-0.215324 0.065489 0.000000 
-0.189628 0.088631 0.000000 
-0.198851 0.322377 0.000000 
-0.199820 0.360386 0.000000 
-0.226641 0.383938 0.000000 
-0.225622 0.421393 0.000000 
-0.163973 -0.485278 0.000000 
-0.177459 -0.456002 0.000000 
-0.181137 -0.406805 0.000000 
-0.188007 -0.372375 0.000000 
-0.190444 -0.359478 0.000000 
-0.170807 -0.333370 0.000000 
-0.187070 -0.299104 0.000000 
-0.165516 -0.279172 0.000000 
-0.191129 -0.234525 0.000000 
-0.198922 -0.206064 0.000000 
-0.185756 -0.018123 0.000000 
-0.199063 0.009097 0.000000 
-0.172359 0.027024 0.000000 
-0.181381 0.057961 0.000000 
-0.173600 0.335293 0.000000 
-0.198671 0.397988 0.000000 
-0.169816 0.409983 0.000000 
-0.195672 0.434901 0.000000 
-0.143410 -0.459309 0.000000 
-0.164415 -0.431742 0.000000 
-0.144459 -0.408322 0.000000 
-0.155913 -0.383311 0.000000 
-0.152140 -0.308941 0.000000 
-0.132200 -0.283260 0.000000 
-0.169995 -0.251432 0.000000 
-0.163340 -0.217276 0.000000 
-0.181482 -0.183877 0.000000 
-0.163584 -0.161126 0.000000 
-0.149022 -0.030135 0.000000 
-0.161573 -0.000968 0.000000 
-0.147988 0.047676 0.000000 
-0.157312 0.077971 0.000000 
-0.147619 0.346213 0.000000 
-0.172815 0.372886 0.000000 
-0.145066 0.383336 0.000000 
-0.164773 0.446367 0.000000 
-0.131688 -0.492120 0.000000 
-0.111790 -0.462613 0.000000 
-0.127230 -0.430909 0.000000 
-0.117963 -0.392345 0.000000 
-0.142478 -0.250114 0.000000 
-0.128679 -0.224202 0.000000 
-0.146491 -0.192892 0.000000 
-0.127937 -0.170087 0.000000 
-0.145926 -0.138572 0.000000 
-0.128554 -0.116154 0.000000 
-0.119836 -0.060576 0.000000 
-0.126941 -0.008946 0.000000 
-0.137230 0.020724 0.000000 
-0.110371 0.041956 0.000000 
-0.124786 0.067258 0.000000 
-0.120909 0.355192 0.000000 
-0.116724 0.391684 0.000000 
-0.140299 0.419898 0.000000 
-0.133188 0.455721 0.000000 
-0.100051 -0.496826 0.000000 
-0.082507 -0.464923 0.000000 
-0.098980 -0.428133 0.000000 
-0.086668 -0.397173 0.000000 
-0.112319 -0.257894 0.000000 
-0.093830 -0.234391 0.000000 
-0.110355 -0.201533 0.000000 
-0.092016 -0.178359 0.000000 
-0.109708 -0.147172 0.000000 
-0.092629 -0.123603 0.000000 
-0.111261 -0.093552 0.000000 
-0.090510 -0.067294 0.000000 
-0.111730 -0.034919 0.000000 
-0.090032 -0.009734 0.000000 
-0.104616 0.013788 0.000000 
-0.087806 0.062553 0.000000 
-0.093423 0.362267 0.000000 
-0.087808 0.397675 0.000000 
-0.110312 0.427440 0.000000 
-0.101266 0.462925 0.000000 
-0.068746 -0.499759 0.000000 
-0.051935 -0.466745 0.000000 
-0.069946 -0.433176 0.000000 
-0.056172 -0.399996 0.000000 
-0.075313 -0.210801 0.000000 
-0.056847 -0.187104 0.000000 
-0.073466 -0.155015 0.000000 
-0.058560 -0.129518 0.000000 
-0.076281 -0.097690 0.000000 
-0.058905 -0.067499 0.000000 
-0.077477 -0.038307 0.000000 
-0.060699 -0.005557 0.000000 
-0.076643 0.026909 0.000000 
-0.055169 0.051299 0.000000 
-0.064466 0.080860 0.000000 
-0.064966 0.367450 0.000000 
-0.059639 0.404788 0.000000 
-0.080539 0.433768 0.000000 
-0.068796 0.468050 0.000000 
-0.037460 -0.501168 0.000000 
-0.020464 -0.453512 0.000000 
-0.040080 -0.430829 0.000000 
-0.023484 -0.401437 0.000000 
-0.038377 -0.163193 0.000000 
-0.028881 -0.125990 0.000000 
-0.044303 -0.097223 0.000000 
-0.027399 -0.065846 0.000000 
-0.045365 -0.036433 0.000000 
-0.027207 -0.009826 0.000000 
-0.043006 0.020874 0.000000 
-0.023903 0.049617 0.000000 
-0.034453 0.082482 0.000000 
-0.012505 0.106794 0.000000 
-0.050123 0.113971 0.000000 
-0.050183 0.149163 0.000000 
-0.050209 0.182642 0.000000 
-0.017756 0.202389 0.000000 
-0.050225 0.213949 0.000000 
-0.050241 0.244447 0.000000 
-0.050259 0.274543 0.000000 
-0.050285 0.304299 0.000000 
-0.050339 0.332713 0.000000 
-0.033783 0.354426 0.000000 
-0.034194 0.383731 0.000000 
-0.028376 0.414534 0.000000 
-0.050013 0.439615 0.000000 
-0.035227 0.471018 0.000000 
-0.019460 -0.480320 0.000000 
0.012185 -0.466761 0.000000 
-0.003136 -0.430920 0.000000 
0.009137 -0.401647 0.000000 
-0.011351 -0.150927 0.000000 
0.003366 -0.119163 0.000000 
-0.011899 -0.093087 0.000000 
0.008152 -0.065641 0.000000 
-0.010653 -0.039249 0.000000 
0.006753 -0.013754 0.000000 
-0.010695 0.017543 0.000000 
0.008467 0.043225 0.000000 
-0.002375 0.074985 0.000000 
0.021466 0.097367 0.000000 
-0.022837 0.134007 0.000000 
-0.001989 0.154289 0.000000 
-0.021976 0.172096 0.000000 
0.013275 0.188719 0.000000 
-0.016820 0.232276 0.000000 
0.016591 0.248330 0.000000 
-0.016866 0.262477 0.000000 
-0.017302 0.293146 0.000000 
-0.016041 0.324297 0.000000 
0.018196 0.339589 0.000000 
-0.005126 0.358146 0.000000 
-0.001870 0.389583 0.000000 
-0.016784 0.444425 0.000000 
0.017733 0.443196 0.000000 
0.030084 -0.501221 0.000000 
0.043330 -0.468274 0.000000 
0.026925 -0.435268 0.000000 
0.039266 -0.400932 0.000000 
0.014949 -0.150542 0.000000 
0.035462 -0.126756 0.000000 
0.023818 -0.094097 0.000000 
0.043079 -0.067113 0.000000 
0.026222 -0.037734 0.000000 
0.045353 -0.008911 0.000000 
0.021251 0.010392 0.000000 
0.039463 0.030283 0.000000 
0.030653 0.065768 0.000000 
[...]
POINT_DATA 613
SCALARS u float 1
LOOKUP_TABLE default
-27.259216
-26.273902
-19.455170
-4.568363
-2.837428
-90.583754
-0.253852
-1.218655
-1.454914
-0.474179
-0.444399
-2.146501
0.430992
-0.531938
-2.238868
2.913532
2.890072
1.023543
-1.673065
-0.023158
-1.385013
-0.329194
-1.241297
-2.402712
-1.112506
0.878655
2.165407
0.236197
-0.129785
-12.743118
-12.631029
1.932430
-4.084156
4.859084
3.936067
-0.553379
-0.078668
-1.314733
-2.117582
-1.861129
-1.074079
-1.047768
-0.752353
-1.177667
-1.576795
1.131934
-0.381587
-8.161100
-8.609176
-10.768879
-2.842002
-4.003027
-2.416308
-2.289333
6.857094
6.034344
-0.078149
-0.229298
-2.314862
-2.521016
-6.297084
-3.795423
-1.097659
-1.841217
0.279965
-4.040930
-5.670359
-4.057470
-0.056411
-5.018076
-3.102032
-3.601426
-1.997088
-1.310874
7.649648
7.260979
0.607944
0.201546
-2.867697
-2.559968
-9.869624
-8.910846
-4.302766
-2.219682
-5.826964
-8.169331
3.146152
-1.527497
-3.389563
-3.357705
-2.029409
-1.088824
-1.907291
0.214219
-3.617888
-2.649955
-7.878439
-9.564033
-4.956143
-5.263628
-4.248890
-0.378012
-3.895835
-3.688315
-3.939707
-1.989908
1.678902
4.953454
5.925749
5.716614
3.529435
-2.844305
0.663843
-3.183742
-4.903557
-5.361560
-5.187140
-5.022102
-4.614959
-4.701145
-3.706323
-2.174150
6.703829
17.552911
-5.266629
-7.388709
-14.159695
11.858722
-3.976432
-4.873051
-5.317000
-6.951482
-5.860474
-11.264464
-14.091708
-3.596266
-1.085079
6.950010
25.425203
0.501237
-7.744145
-12.410694
-3.366048
1.602877
19.030987
16.084972
-3.362124
-4.489116
-5.596107
-7.422657
-15.380670
-4.662659
-4.294125
-1.254721
6.280544
13.193527
25.713625
0.525735
-2.304598
-29.225391
-0.581251
-2.408186
4.999652
3.418663
9.935003
-2.561537
-5.126007
-5.934443
-7.819569
-14.931666
-4.179996
-1.222530
5.090621
-2.987898
-1.497086
-1.446565
-26.827076
-18.075730
-6.818520
-1.872904
1.640757
2.653384
3.648562
-2.779946
-4.709998
-5.105980
-5.620393
-12.901660
-1.548507
-2.173555
3.165180
-5.202708
1.385566
-2.761847
-5.824443
-4.179402
-1.128032
3.945148
2.755350
1.171092
-1.948925
-1.926095
-4.190265
-5.826211
-8.694735
-9.575669
-3.902195
-3.375259
0.491963
-22.345186
-10.415828
3.920846
18.606668
0.747384
2.940523
1.819285
1.449959
-5.151573
-7.068235
2.161410
-5.086695
-5.846760
-5.632948
-9.280876
-4.454185
-3.453700
-3.184027
-2.578147
-39.789994
-17.738032
3.525331
46.886161
2.556469
5.445524
2.949216
3.378364
1.683714
0.331751
-5.120824
-2.927700
-1.843176
-2.679330
-3.943219
-11.145882
3.239242
-3.828781
-4.444026
-5.135734
-47.346929
-21.809714
8.991271
74.637089
9.477526
13.892387
3.584206
2.656677
-2.802805
-2.747202
-3.969563
-3.881119
-5.164615
-4.233595
-6.831660
5.167766
-3.434584
-7.282400
-8.794975
-69.427948
-5.624466
8.983851
89.003191
23.003903
-0.126181
-2.611825
-3.275883
-3.882845
-4.692948
-4.674592
-5.140411
-1.726495
-1.594035
-3.212891
-0.394365
-0.477776
-0.029861
-0.334918
-0.407081
-0.199336
1.000359
1.820105
1.590201
1.010129
-3.854266
-7.073042
-17.651754
-24.193647
-21.787304
8.938640
101.913035
32.685801
2.047291
-0.452325
-2.968163
-4.078573
-4.466477
-4.798096
-4.114810
-3.197377
-1.907068
-0.491132
-0.360242
0.065147
-0.162419
-0.038361
0.011439
0.065022
-0.111547
0.928677
1.159493
1.881143
-0.638075
-7.379808
-6.431920
-84.529396
-19.432212
11.120982
93.742509
31.602822
0.266941
-0.764103
-2.763792
-3.984714
-4.289227
-4.587096
-4.224677
-3.523942
-6.556942
-0.917660
-1.810698
0.089859
-0.363658
-0.006335
-0.385411
0.032703
0.423533
0.586155
4.024562
2.884871
-1.875151
-0.783899
-18.861877
-64.839801
-16.994550
6.987736
68.507696
12.380440
22.905308
4.067817
-3.586111
-2.346565
-3.302614
-3.783962
-5.239386
-5.015946
-4.312557
-3.144945
-0.419872
-0.374117
-0.312127
1.643400
-1.859169
-3.979826
-8.348668
-7.556186
-43.623378
-10.817125
4.927786
39.194167
5.199781
8.751374
3.639263
3.181279
0.809578
-3.164773
-3.850343
-1.644281
-2.196269
-4.383749
-12.149360
-10.914987
2.344253
-3.626836
-6.049885
-5.369415
-25.161788
-5.815850
2.217628
14.476313
-1.549094
1.771072
2.222723
2.855014
1.729564
1.986761
-6.167988
-3.816577
-5.196562
-2.980389
-4.361267
-2.782173
-3.005584
-3.999694
-1.639473
-6.086286
-2.187404
-4.866519
-6.725651
-4.276716
0.622103
1.486799
2.794643
2.196187
-3.026766
-7.300619
-4.721634
-5.653216
-5.016975
-11.295075
-7.671915
-3.486830
-2.099663
-3.678452
11.270511
-0.732493
2.246892
-27.893795
-6.767199
-1.110041
3.772057
3.509694
6.092589
1.694229
-3.468889
-4.426464
-5.241890
-7.530816
-11.546806
-4.041237
-1.711011
0.016938
21.868287
5.479711
-5.867786
-23.017409
-17.827926
-0.839697
4.533451
15.674866
10.903766
-5.029602
-5.312143
-5.463020
-6.209185
-13.588127
-4.486868
-4.223574
4.743025
2.672920
19.528818
-0.695402
-4.942993
-18.468941
-5.362456
0.953364
13.245452
-4.072730
-5.060411
-5.250963
-5.525862
-11.457686
-13.413841
-1.365266
-1.561493
6.141039
21.587019
-5.821166
-7.969523
-4.460237
5.187066
-4.871781
-5.118525
-5.307680
-5.021527
-4.589014
-3.734483
-1.588013
5.461913
7.546851
-1.709523
-2.455905
-1.077115
-5.505269
-5.221814
-5.212833
-4.586823
-7.108006
-8.256803
-4.216250
-3.779616
0.735255
2.690275
9.541421
4.780455
-4.495673
-0.416387
-8.026496
-11.934065
-5.815509
-5.234723
-4.913233
-1.593744
-2.244194
-5.139658
-3.645753
-3.848671
-2.189673
-0.873398
0.512680
0.097355
-0.972816
-2.167978
-11.503759
-10.472459
-5.501416
-4.671640
-6.401540
1.092776
1.623901
-3.248599
-3.288144
-2.742200
-2.479970
0.566286
0.922840
4.945842
5.585913
-0.171120
-0.189721
-2.382904
-2.398566
-8.823565
-6.016891
0.059113
-0.694510
-3.733378
-6.619960
-5.852050
-4.974128
-2.723591
-3.320052
-2.670125
-1.353744
-0.348992
5.258719
4.705571
-0.349369
-0.421494
-1.818496
-2.772691
-0.635370
-1.888817
0.683279
-1.061291
-1.067455
0.012875
-2.308770
0.523031
-2.393616
-5.008278
-12.124222
0.316846
-5.197040
-3.548857
-2.422961
3.915170
2.810764
-0.628474
-0.776638
-1.029601
-0.762759
-1.122464
-0.629879
-0.943166
-1.613795
-0.314754
-0.222679
-1.787441
0.870854
-25.314226
-19.521799
-11.559923
1.361321
0.088544
-0.250622
-1.206740
-0.030861
-3.031077
-3.134257
0.861062
-0.629606
1.178996
-3.714859
3.119142
