# vtk DataFile Version 2.0
Unstructured Grid Example
ASCII
DATASET UNSTRUCTURED_GRID
POINTS 613 float
-0.000230 0.471058 0.000000 
0.471544 0.129713 0.000000 
-0.471623 0.129481 0.000000 
0.500000 -0.022282 0.000000 
-0.500000 -0.022606 0.000000 
0.000000 -0.500000 0.000000 
-0.486117 -0.158274 0.000000 
-0.493507 -0.123381 0.000000 
-0.498164 -0.088879 0.000000 
-0.475555 -0.067454 0.000000 
-0.500331 -0.053075 0.000000 
-0.465552 -0.010443 0.000000 
-0.498405 0.007179 0.000000 
-0.494708 0.038569 0.000000 
-0.488843 0.070686 0.000000 
-0.481373 0.100561 0.000000 
-0.465722 -0.220369 0.000000 
-0.476626 -0.190887 0.000000 
-0.453537 -0.169001 0.000000 
-0.464949 -0.135402 0.000000 
-0.441913 -0.111552 0.000000 
-0.469670 -0.101396 0.000000 
-0.448970 -0.075373 0.000000 
-0.465074 -0.039815 0.000000 
-0.433172 -0.023631 0.000000 
-0.467232 0.017873 0.000000 
-0.440600 0.032728 0.000000 
-0.464440 0.051578 0.000000 
-0.454693 0.081683 0.000000 
-0.446779 0.108998 0.000000 
-0.442067 0.142922 0.000000 
-0.459568 0.165526 0.000000 
-0.445446 0.197772 0.000000 
-0.437268 -0.277930 0.000000 
-0.452499 -0.249680 0.000000 
-0.429383 -0.221865 0.000000 
-0.439113 -0.193732 0.000000 
-0.414058 -0.164931 0.000000 
-0.436241 -0.146003 0.000000 
-0.414742 -0.126858 0.000000 
-0.422198 -0.089355 0.000000 
-0.399241 -0.070151 0.000000 
-0.430671 -0.053357 0.000000 
-0.399343 -0.010021 0.000000 
-0.430633 0.005773 0.000000 
-0.411762 0.039968 0.000000 
-0.430884 0.064379 0.000000 
-0.416435 0.090201 0.000000 
-0.419089 0.121182 0.000000 
-0.408045 0.148595 0.000000 
-0.425404 0.173459 0.000000 
-0.408409 0.199663 0.000000 
-0.430137 0.227056 0.000000 
-0.413679 0.254131 0.000000 
-0.401391 -0.330400 0.000000 
-0.420152 -0.304928 0.000000 
-0.400403 -0.274927 0.000000 
-0.415805 -0.248931 0.000000 
-0.392879 -0.220761 0.000000 
-0.404491 -0.193552 0.000000 
-0.379240 -0.166224 0.000000 
-0.387915 -0.138060 0.000000 
-0.395187 -0.104042 0.000000 
-0.400382 -0.039548 0.000000 
-0.396135 0.020284 0.000000 
-0.394647 0.065553 0.000000 
-0.378415 0.088385 0.000000 
-0.390626 0.113989 0.000000 
-0.377909 0.139781 0.000000 
-0.387575 0.172239 0.000000 
-0.370238 0.194946 0.000000 
-0.391544 0.224215 0.000000 
-0.381147 0.252328 0.000000 
-0.393840 0.282324 0.000000 
-0.357963 -0.378027 0.000000 
-0.380966 -0.354459 0.000000 
-0.365026 -0.322225 0.000000 
-0.383078 -0.299330 0.000000 
-0.362285 -0.271391 0.000000 
-0.378524 -0.246693 0.000000 
-0.355677 -0.218873 0.000000 
-0.368485 -0.193125 0.000000 
-0.345089 0.034687 0.000000 
-0.373864 0.044199 0.000000 
-0.354623 0.071443 0.000000 
-0.355267 0.111229 0.000000 
-0.352337 0.160225 0.000000 
-0.336415 0.188919 0.000000 
-0.354801 0.221556 0.000000 
-0.353934 0.252987 0.000000 
-0.359588 0.283910 0.000000 
-0.372122 0.308949 0.000000 
-0.323755 -0.371548 0.000000 
-0.347336 -0.346377 0.000000 
-0.327571 -0.317124 0.000000 
-0.343836 -0.294103 0.000000 
-0.323104 -0.267962 0.000000 
-0.340627 -0.243782 0.000000 
-0.314533 0.024535 0.000000 
-0.325848 0.058485 0.000000 
-0.331043 0.095785 0.000000 
-0.345155 0.140322 0.000000 
-0.318925 0.215231 0.000000 
-0.326546 0.245126 0.000000 
-0.329536 0.278703 0.000000 
-0.332376 0.310605 0.000000 
-0.351665 0.330823 0.000000 
-0.330329 0.351001 0.000000 
-0.307331 -0.420108 0.000000 
-0.332908 -0.400359 0.000000 
-0.298658 -0.390039 0.000000 
-0.313999 -0.345549 0.000000 
-0.293223 -0.322650 0.000000 
-0.302399 -0.291858 0.000000 
-0.290682 0.047778 0.000000 
-0.302435 0.075071 0.000000 
-0.300590 0.103399 0.000000 
-0.314943 0.130249 0.000000 
-0.296491 0.243333 0.000000 
-0.300054 0.271521 0.000000 
-0.300518 0.300072 0.000000 
-0.304456 0.332453 0.000000 
-0.306523 0.370780 0.000000 
-0.281765 -0.437061 0.000000 
-0.269041 -0.413990 0.000000 
-0.270011 -0.382952 0.000000 
-0.286006 -0.356598 0.000000 
-0.271268 -0.300787 0.000000 
-0.283534 0.014231 0.000000 
-0.261352 0.042373 0.000000 
-0.271361 0.080669 0.000000 
-0.248870 0.108264 0.000000 
-0.278417 0.118086 0.000000 
-0.270287 0.270311 0.000000 
-0.247106 0.290153 0.000000 
-0.273986 0.310083 0.000000 
-0.278732 0.349449 0.000000 
-0.281502 0.388930 0.000000 
-0.255676 -0.451701 0.000000 
-0.235558 -0.428824 0.000000 
-0.241303 -0.396869 0.000000 
-0.249447 -0.361642 0.000000 
-0.260900 -0.333477 0.000000 
-0.238137 -0.311836 0.000000 
-0.254324 -0.277787 0.000000 
-0.237017 -0.255031 0.000000 
-0.253968 0.004415 0.000000 
-0.232942 0.030789 0.000000 
-0.243366 0.069938 0.000000 
-0.220146 0.098733 0.000000 
-0.223343 0.307385 0.000000 
-0.250822 0.329293 0.000000 
-0.225940 0.345897 0.000000 
-0.253575 0.367945 0.000000 
-0.254330 0.405993 0.000000 
-0.198003 -0.475582 0.000000 
-0.226904 -0.464923 0.000000 
-0.203188 -0.437654 0.000000 
-0.209845 -0.404467 0.000000 
-0.219965 -0.374124 0.000000 
-0.224051 -0.342634 0.000000 
-0.203305 -0.323131 0.000000 
-0.220557 -0.288640 0.000000 
-0.201516 -0.265856 0.000000 
-0.219761 -0.232714 0.000000 
-0.222979 -0.005848 0.000000 
-0.205133 0.037379 0.000000 
-0.215324 0.065489 0.000000 
-0.189628 0.088631 0.000000 
-0.198851 0.322377 0.000000 
-0.199821 0.360386 0.000000 
-0.226641 0.383938 0.000000 
-0.225622 0.421393 0.000000 
-0.163973 -0.485278 0.000000 
-0.177459 -0.456002 0.000000 
-0.181137 -0.406805 0.000000 
-0.188007 -0.372375 0.000000 
-0.190444 -0.359478 0.000000 
-0.170807 -0.333370 0.000000 
-0.187070 -0.299104 0.000000 
-0.165516 -0.279172 0.000000 
-0.191129 -0.234525 0.000000 
-0.198922 -0.206064 0.000000 
-0.185756 -0.018123 0.000000 
-0.199063 0.009097 0.000000 
-0.172359 0.027024 0.000000 
-0.181381 0.057961 0.000000 
-0.173600 0.335293 0.000000 
-0.198671 0.397988 0.000000 
-0.169816 0.409983 0.000000 
-0.195672 0.434901 0.000000 
-0.143410 -0.459309 0.000000 
-0.164415 -0.431742 0.000000 
-0.144459 -0.408322 0.000000 
-0.155913 -0.383311 0.000000 
-0.152140 -0.308941 0.000000 
-0.132200 -0.283260 0.000000 
-0.169995 -0.251432 0.000000 
-0.163340 -0.217276 0.000000 
-0.181482 -0.183877 0.000000 
-0.163584 -0.161126 0.000000 
-0.149022 -0.030135 0.000000 
-0.161573 -0.000968 0.000000 
-0.147988 0.047676 0.000000 
-0.157312 0.077971 0.000000 
-0.147619 0.346213 0.000000 
-0.172815 0.372886 0.000000 
-0.145066 0.383336 0.000000 
-0.164773 0.446367 0.000000 
-0.131688 -0.492120 0.000000 
-0.111791 -0.462613 0.000000 
-0.127230 -0.430909 0.000000 
-0.117963 -0.392345 0.000000 
-0.142478 -0.250114 0.000000 
-0.128679 -0.224202 0.000000 
-0.146491 -0.192892 0.000000 
-0.127937 -0.170087 0.000000 
-0.145926 -0.138572 0.000000 
-0.128554 -0.116154 0.000000 
-0.119836 -0.060576 0.000000 
-0.126940 -0.008946 0.000000 
-0.137230 0.020724 0.000000 
-0.110371 0.041955 0.000000 
-0.124786 0.067258 0.000000 
-0.120909 0.355192 0.000000 
-0.116724 0.391683 0.000000 
-0.140299 0.419898 0.000000 
-0.133188 0.455721 0.000000 
-0.100051 -0.496826 0.000000 
-0.082507 -0.464923 0.000000 
-0.098980 -0.428133 0.000000 
-0.086668 -0.397173 0.000000 
-0.112319 -0.257894 0.000000 
-0.093830 -0.234391 0.000000 
-0.110355 -0.201533 0.000000 
-0.092016 -0.178359 0.000000 
-0.109708 -0.147172 0.000000 
-0.092629 -0.123603 0.000000 
-0.111261 -0.093552 0.000000 
-0.090510 -0.067294 0.000000 
-0.111730 -0.034919 0.000000 
-0.090032 -0.009734 0.000000 
-0.104616 0.013788 0.000000 
-0.087806 0.062553 0.000000 
-0.093423 0.362267 0.000000 
-0.087807 0.397675 0.000000 
-0.110313 0.427439 0.000000 
-0.101266 0.462925 0.000000 
-0.068746 -0.499759 0.000000 
-0.051935 -0.466745 0.000000 
-0.069946 -0.433176 0.000000 
-0.056172 -0.399996 0.000000 
-0.075313 -0.210801 0.000000 
-0.056847 -0.187104 0.000000 
-0.073466 -0.155015 0.000000 
-0.058560 -0.129518 0.000000 
-0.076281 -0.097690 0.000000 
-0.058905 -0.067499 0.000000 
-0.077477 -0.038307 0.000000 
-0.060699 -0.005557 0.000000 
-0.076643 0.026909 0.000000 
-0.055169 0.051299 0.000000 
-0.064466 0.080860 0.000000 
-0.064965 0.367450 0.000000 
-0.059639 0.404788 0.000000 
-0.080539 0.433768 0.000000 
-0.068797 0.468050 0.000000 
-0.037460 -0.501168 0.000000 
-0.020464 -0.453512 0.000000 
-0.040080 -0.430829 0.000000 
-0.023484 -0.401437 0.000000 
-0.038377 -0.163193 0.000000 
-0.028881 -0.125990 0.000000 
-0.044303 -0.097223 0.000000 
-0.027399 -0.065846 0.000000 
-0.045364 -0.036433 0.000000 
-0.027206 -0.009826 0.000000 
-0.043006 0.020874 0.000000 
-0.023903 0.049617 0.000000 
-0.034453 0.082482 0.000000 
-0.012505 0.106794 0.000000 
-0.050123 0.113971 0.000000 
-0.050183 0.149162 0.000000 
-0.050209 0.182641 0.000000 
-0.017757 0.202389 0.000000 
-0.050225 0.213949 0.000000 
-0.050241 0.244447 0.000000 
-0.050259 0.274543 0.000000 
-0.050285 0.304300 0.000000 
-0.050339 0.332714 0.000000 
-0.033782 0.354426 0.000000 
-0.034194 0.383731 0.000000 
-0.028376 0.414535 0.000000 
-0.050013 0.439615 0.000000 
-0.035227 0.471018 0.000000 
-0.019460 -0.480320 0.000000 
0.012185 -0.466761 0.000000 
-0.003136 -0.430920 0.000000 
0.009137 -0.401647 0.000000 
-0.011351 -0.150927 0.000000 
0.003366 -0.119163 0.000000 
-0.011899 -0.093087 0.000000 
0.008152 -0.065641 0.000000 
-0.010653 -0.039249 0.000000 
0.006753 -0.013754 0.000000 
-0.010694 0.017543 0.000000 
0.008467 0.043225 0.000000 
-0.002375 0.074985 0.000000 
0.021466 0.097368 0.000000 
-0.022836 0.134007 0.000000 
-0.001988 0.154288 0.000000 
-0.021976 0.172095 0.000000 
0.013274 0.188720 0.000000 
-0.016820 0.232275 0.000000 
0.016591 0.248330 0.000000 
-0.016866 0.262476 0.000000 
-0.017302 0.293146 0.000000 
-0.016041 0.324297 0.000000 
0.018197 0.339589 0.000000 
-0.005125 0.358146 0.000000 
-0.001869 0.389583 0.000000 
-0.016784 0.444425 0.000000 
0.017733 0.443196 0.000000 
0.030084 -0.501221 0.000000 
0.043330 -0.468274 0.000000 
0.026925 -0.435268 0.000000 
0.039266 -0.400932 0.000000 
0.014949 -0.150542 0.000000 
0.035462 -0.126756 0.000000 
0.023819 -0.094097 0.000000 
0.043080 -0.067113 0.000000 
0.026222 -0.037735 0.000000 
0.045353 -0.008912 0.000000 
0.021252 0.010393 0.000000 
0.039462 0.030284 0.000000 
0.030653 0.065769 0.000000 
[...]
POINT_DATA 613
SCALARS u float 1
LOOKUP_TABLE default
24.454299
33.908185
30.677740
10.784670
13.591202
80.669395
8.528294
5.057185
2.610451
4.695212
9.522380
4.945710
14.898587
14.115625
17.854799
35.498468
16.713192
13.196337
2.599648
3.691789
7.658625
4.189081
7.309492
5.865667
3.946892
9.067873
6.669829
7.904663
9.250373
13.742997
12.888064
23.226694
9.356118
18.047864
17.405689
0.858204
0.447914
9.295408
6.343982
5.742546
6.117976
8.429672
6.148922
3.161329
2.879824
1.633357
1.733779
10.337026
8.895494
11.375465
10.846876
8.652223
7.057667
3.968509
17.479277
18.172097
0.194760
0.587906
8.824302
8.370136
27.185247
21.911189
14.099164
4.221700
1.460237
8.572764
9.210899
6.414256
6.270812
8.336806
5.715191
6.317158
3.722613
1.404941
14.185701
15.654520
1.106491
0.422613
9.334668
8.794034
31.929360
30.783817
6.123042
4.176430
6.676133
7.867218
6.339008
4.028111
6.388813
4.954691
4.144109
2.655921
4.550723
1.058168
10.546921
9.178519
28.328227
31.175384
5.592085
5.403334
5.388256
3.912380
8.291880
5.823447
5.660368
2.520356
4.149989
6.096484
22.217938
17.570374
3.527266
10.928643
20.708817
32.374558
5.268455
5.742885
5.519756
6.293675
9.733531
6.896221
4.861489
2.333439
8.238363
28.814788
12.408667
8.587492
18.508412
42.783234
4.284606
5.291192
5.714223
7.247196
6.159532
17.061861
18.181270
6.162396
1.725818
8.258207
32.802877
3.554383
12.429633
16.019914
15.611596
7.823814
42.654367
29.106010
3.473478
4.712090
5.900474
7.821969
19.253094
6.834613
6.436399
2.183419
7.175683
17.210680
34.075999
13.418665
24.186231
30.467110
23.090781
10.188551
7.423677
5.437798
17.079328
2.627657
5.494744
6.487785
8.317052
18.210194
6.335863
2.479713
5.521445
7.972134
12.068461
10.397319
27.763479
26.317438
28.163649
12.466599
9.249957
4.911066
6.946755
2.571340
5.277404
5.371515
6.076829
15.602319
3.122722
3.914466
3.210336
14.085651
17.644593
11.773715
13.148985
21.390575
15.141600
7.896390
6.687230
6.769230
11.967165
1.983912
4.605128
6.088074
8.948920
11.951055
6.148042
5.844217
1.540883
25.372361
18.311657
14.937111
23.387097
5.666041
6.976966
5.980294
7.736541
20.612385
28.950349
12.699602
5.510005
5.482196
5.177301
9.136942
7.493023
5.998034
4.911509
4.289530
42.464950
20.851671
13.032016
47.322996
9.716559
6.469845
5.614463
5.533708
7.615729
7.252888
20.913801
8.263045
5.705036
3.242778
3.559490
10.303395
4.499318
7.289648
6.321858
6.716178
51.421012
30.327923
22.547228
76.547325
12.376660
21.406117
5.262217
2.523021
5.084343
4.256796
4.346856
3.961542
4.502724
4.314239
8.005230
5.986312
5.663351
8.915577
10.535903
81.147406
16.954330
8.907912
91.077444
23.895265
1.726705
3.937961
4.174204
4.315770
4.309680
4.332233
4.608831
3.089256
3.396273
5.713733
4.414556
4.231849
4.432354
4.302317
4.346742
4.653253
4.401139
2.572432
5.088857
6.388173
11.223558
8.503554
24.812881
34.458116
25.490760
20.665516
104.529400
29.957632
2.268734
3.460115
4.019106
4.166805
4.196251
4.251066
3.569751
3.041544
3.379005
4.280670
4.392186
4.565322
4.505602
4.464636
4.453945
4.380771
4.273797
6.469367
6.101638
6.892983
4.868649
16.654725
9.674112
106.411463
20.853071
24.941341
92.719818
29.238982
1.170149
3.317562
4.696708
4.137446
4.089591
4.107746
3.902646
3.262871
7.921649
4.141900
4.785808
4.432791
4.280446
4.481037
4.611724
4.427417
4.884859
4.572442
6.868193
6.301108
12.029547
7.381663
26.365348
68.106588
25.784950
15.325751
65.489750
19.463299
24.245466
4.445843
4.564216
6.581254
4.282911
4.064096
4.758631
4.531437
4.399124
6.643620
4.159674
4.469199
4.808492
4.851432
5.223484
6.461211
10.102261
8.717051
46.997848
18.160666
15.058147
38.057520
6.437198
11.258378
6.399189
4.348171
7.873830
7.653338
19.975706
4.707791
2.672272
3.821957
11.011485
10.625601
7.625847
5.482909
7.283522
6.570589
30.208994
15.233890
14.929497
17.481174
17.935932
10.580570
6.382101
5.712184
7.271754
9.549727
23.314440
12.786243
5.829236
3.319267
4.709630
8.678316
6.018053
5.580272
3.703053
11.456435
15.421483
16.229297
16.084489
22.760675
8.843014
7.173293
5.947168
6.555239
12.550990
22.046287
4.172758
5.417224
5.405433
10.458563
10.555197
5.726087
3.982104
5.053855
13.813092
12.929014
13.771379
28.117902
29.404182
12.195018
6.072069
6.024592
9.935879
5.365404
3.712929
4.861272
5.534859
7.750197
14.504880
6.069713
3.155853
1.547366
28.988206
9.208068
21.953986
31.996907
25.959008
8.570637
6.904088
31.738885
19.203701
5.332819
5.725471
5.784271
6.626735
17.100151
6.155348
6.250750
4.898990
2.644588
33.086010
7.804601
21.097974
23.038156
19.932118
10.713130
41.694894
4.215393
5.451661
5.674272
5.815819
15.107943
17.601786
2.267117
2.758830
6.732331
33.710365
8.857632
11.375846
11.059805
27.914837
5.226837
5.470713
5.611899
5.493523
6.367881
6.980501
1.772702
6.268498
25.358823
4.507845
14.525297
11.236565
6.236931
5.492610
5.637919
4.806665
12.961006
15.261614
5.510845
4.756109
4.780301
4.545093
13.349263
10.711257
6.156700
6.907938
23.034767
32.670990
7.084549
5.687819
6.009062
3.015109
4.671364
9.177493
6.140563
6.163484
2.803744
3.462837
1.633686
1.321601
7.063458
8.036712
32.466476
31.596775
6.142976
6.011496
7.335366
6.564692
6.055379
6.129119
5.730429
4.682035
3.586565
3.707642
5.359754
10.331651
15.720419
0.521138
0.339990
8.803325
8.889755
29.214607
24.871535
11.663384
4.917445
5.401556
10.900243
9.119182
5.955656
6.166063
7.027152
5.626467
3.252294
1.845157
17.992743
18.294019
0.390533
0.557643
7.916892
7.539331
10.973855
7.871799
7.711835
6.063412
1.788127
3.400406
7.510324
0.893636
6.921779
5.270733
11.128228
9.198733
10.053839
9.937396
6.846246
17.883453
16.208790
1.235904
2.286966
6.413714
3.462915
6.390958
5.153819
7.571696
4.115159
3.636186
5.760492
8.903083
13.078179
24.528658
33.186165
16.226942
12.760318
7.138213
4.862041
3.754844
7.147859
6.922032
14.477255
7.129755
11.163867
10.714543
5.887587
24.278130
