# vtk DataFile Version 2.0
Unstructured Grid Example
ASCII
DATASET UNSTRUCTURED_GRID
POINTS 2441 float
0.000000 0.500000 0.000000 
0.475500 0.154500 0.000000 
-0.475500 0.154500 0.000000 
0.500000 0.000000 0.000000 
-0.500000 0.000000 0.000000 
0.000000 -0.500000 0.000000 
-0.499039 -0.030979 0.000000 
-0.486351 0.007056 0.000000 
-0.498979 0.031938 0.000000 
-0.482435 -0.131365 0.000000 
-0.489205 -0.103338 0.000000 
-0.492197 -0.087991 0.000000 
-0.494391 -0.074684 0.000000 
-0.496351 -0.060297 0.000000 
-0.484676 -0.051276 0.000000 
-0.497997 -0.044711 0.000000 
-0.485933 -0.023935 0.000000 
-0.499760 -0.015500 0.000000 
-0.486145 -0.007507 0.000000 
-0.499750 0.015821 0.000000 
-0.486400 0.023651 0.000000 
-0.497838 0.046452 0.000000 
-0.485071 0.052970 0.000000 
-0.496023 0.062940 0.000000 
-0.493895 0.077895 0.000000 
-0.491097 0.093933 0.000000 
-0.488052 0.108653 0.000000 
-0.484411 0.123881 0.000000 
-0.473262 -0.161316 0.000000 
-0.477984 -0.146736 0.000000 
-0.468691 -0.134368 0.000000 
-0.485946 -0.117713 0.000000 
-0.473578 -0.106604 0.000000 
-0.478545 -0.092512 0.000000 
-0.475917 -0.078568 0.000000 
-0.480638 -0.065555 0.000000 
-0.470434 -0.051629 0.000000 
-0.481326 -0.037740 0.000000 
-0.468917 -0.028551 0.000000 
-0.473941 -0.015048 0.000000 
-0.470270 -0.000923 0.000000 
-0.474316 0.013491 0.000000 
-0.470631 0.027119 0.000000 
-0.482105 0.038332 0.000000 
-0.471318 0.051911 0.000000 
-0.480132 0.067254 0.000000 
-0.468191 0.075935 0.000000 
-0.479815 0.084043 0.000000 
-0.474542 0.098384 0.000000 
-0.472899 0.112222 0.000000 
-0.469847 0.128382 0.000000 
-0.480129 0.139558 0.000000 
-0.470724 0.168579 0.000000 
-0.455628 -0.205919 0.000000 
-0.462039 -0.191103 0.000000 
-0.452974 -0.178315 0.000000 
-0.468029 -0.175923 0.000000 
-0.457790 -0.162478 0.000000 
-0.462570 -0.148479 0.000000 
-0.455199 -0.133188 0.000000 
-0.468445 -0.120079 0.000000 
-0.458518 -0.105312 0.000000 
-0.464450 -0.091330 0.000000 
-0.457409 -0.078236 0.000000 
-0.464378 -0.065848 0.000000 
-0.453965 -0.053637 0.000000 
-0.461778 -0.040256 0.000000 
-0.451643 -0.027891 0.000000 
-0.459454 -0.014805 0.000000 
-0.453869 -0.001360 0.000000 
-0.460191 0.012414 0.000000 
-0.454934 0.025897 0.000000 
-0.463894 0.039394 0.000000 
-0.454047 0.050612 0.000000 
-0.462460 0.063113 0.000000 
-0.452786 0.076103 0.000000 
-0.462724 0.089297 0.000000 
-0.457016 0.102839 0.000000 
-0.459787 0.116869 0.000000 
-0.453998 0.130549 0.000000 
-0.464402 0.142939 0.000000 
-0.459093 0.157037 0.000000 
-0.465846 0.181626 0.000000 
-0.451884 0.183682 0.000000 
-0.459763 0.196516 0.000000 
-0.453454 0.210665 0.000000 
-0.441556 -0.234581 0.000000 
-0.448809 -0.220388 0.000000 
-0.439578 -0.207173 0.000000 
-0.446352 -0.193032 0.000000 
-0.437304 -0.180143 0.000000 
-0.444044 -0.165440 0.000000 
-0.435411 -0.153963 0.000000 
-0.447739 -0.147651 0.000000 
-0.440835 -0.132149 0.000000 
-0.452422 -0.118784 0.000000 
-0.442681 -0.105003 0.000000 
-0.448749 -0.091407 0.000000 
-0.439287 -0.079529 0.000000 
-0.446494 -0.066732 0.000000 
-0.437305 -0.054028 0.000000 
-0.444456 -0.040769 0.000000 
-0.434345 -0.027908 0.000000 
-0.443545 -0.014526 0.000000 
-0.437919 -0.000376 0.000000 
-0.444761 0.012273 0.000000 
-0.438780 0.025321 0.000000 
-0.446165 0.037857 0.000000 
-0.437244 0.048730 0.000000 
-0.445330 0.062712 0.000000 
-0.437308 0.076755 0.000000 
-0.446635 0.090118 0.000000 
-0.439225 0.102664 0.000000 
-0.445551 0.115790 0.000000 
-0.438794 0.129716 0.000000 
-0.448381 0.144071 0.000000 
-0.442206 0.157080 0.000000 
-0.452163 0.169842 0.000000 
-0.438391 0.182256 0.000000 
-0.444508 0.197452 0.000000 
-0.437789 0.211074 0.000000 
-0.446733 0.224566 0.000000 
-0.439564 0.238292 0.000000 
-0.425696 -0.262266 0.000000 
-0.433848 -0.248548 0.000000 
-0.425366 -0.234704 0.000000 
-0.432627 -0.221008 0.000000 
-0.423345 -0.207438 0.000000 
-0.430240 -0.193964 0.000000 
-0.420885 -0.180895 0.000000 
-0.428075 -0.167716 0.000000 
-0.420339 -0.153825 0.000000 
-0.430565 -0.140309 0.000000 
-0.423429 -0.125327 0.000000 
-0.436810 -0.118743 0.000000 
-0.426420 -0.108111 0.000000 
-0.432076 -0.093244 0.000000 
-0.421816 -0.081315 0.000000 
-0.428695 -0.068012 0.000000 
-0.421941 -0.055058 0.000000 
-0.427426 -0.040241 0.000000 
-0.415999 -0.025914 0.000000 
-0.427835 -0.014863 0.000000 
-0.424377 0.000019 0.000000 
-0.428178 0.015132 0.000000 
-0.414914 0.022669 0.000000 
-0.428042 0.033886 0.000000 
-0.422865 0.049206 0.000000 
-0.429528 0.063195 0.000000 
-0.421202 0.076905 0.000000 
-0.429831 0.089962 0.000000 
-0.421963 0.102272 0.000000 
-0.429965 0.115728 0.000000 
-0.423077 0.129472 0.000000 
-0.432473 0.143293 0.000000 
-0.425338 0.156171 0.000000 
-0.434209 0.169127 0.000000 
-0.423260 0.182340 0.000000 
-0.429920 0.196382 0.000000 
-0.422524 0.210260 0.000000 
-0.430838 0.224581 0.000000 
-0.423505 0.237903 0.000000 
-0.431951 0.251831 0.000000 
-0.423896 0.265164 0.000000 
-0.408059 -0.288942 0.000000 
-0.417113 -0.275711 0.000000 
-0.409535 -0.261365 0.000000 
-0.417663 -0.248171 0.000000 
-0.409118 -0.234241 0.000000 
-0.416435 -0.220941 0.000000 
-0.407252 -0.207124 0.000000 
-0.413874 -0.193752 0.000000 
-0.404614 -0.179393 0.000000 
-0.412189 -0.167137 0.000000 
-0.404775 -0.153513 0.000000 
-0.415652 -0.139675 0.000000 
-0.407239 -0.126892 0.000000 
-0.412420 -0.112436 0.000000 
-0.401416 -0.100687 0.000000 
-0.416181 -0.096132 0.000000 
-0.405364 -0.084612 0.000000 
-0.410730 -0.069883 0.000000 
-0.408643 -0.055410 0.000000 
-0.412411 -0.040222 0.000000 
-0.398799 -0.030970 0.000000 
-0.412831 -0.010206 0.000000 
-0.399998 -0.001345 0.000000 
-0.412791 0.007366 0.000000 
-0.398960 0.028828 0.000000 
-0.412622 0.037007 0.000000 
-0.408467 0.052077 0.000000 
-0.413594 0.064131 0.000000 
-0.403932 0.074653 0.000000 
-0.412663 0.088717 0.000000 
-0.405590 0.101880 0.000000 
-0.414115 0.115687 0.000000 
-0.407073 0.129242 0.000000 
-0.416140 0.142803 0.000000 
-0.408922 0.156105 0.000000 
-0.417264 0.169124 0.000000 
-0.407538 0.182619 0.000000 
-0.414653 0.196222 0.000000 
-0.406802 0.209763 0.000000 
-0.415103 0.223735 0.000000 
-0.407463 0.236818 0.000000 
-0.415793 0.251001 0.000000 
-0.407710 0.263906 0.000000 
-0.415399 0.278287 0.000000 
-0.406415 0.291251 0.000000 
-0.398444 -0.302063 0.000000 
-0.392481 -0.287450 0.000000 
-0.401153 -0.274372 0.000000 
-0.393287 -0.259941 0.000000 
-0.401376 -0.247256 0.000000 
-0.392740 -0.233534 0.000000 
-0.400238 -0.220437 0.000000 
-0.391357 -0.206423 0.000000 
-0.398142 -0.192872 0.000000 
-0.389217 -0.178229 0.000000 
-0.395647 -0.164462 0.000000 
-0.387261 -0.149133 0.000000 
-0.400372 -0.140979 0.000000 
-0.390706 -0.131683 0.000000 
-0.396730 -0.116198 0.000000 
-0.385916 -0.105209 0.000000 
-0.389715 -0.090125 0.000000 
-0.392872 -0.075177 0.000000 
-0.395255 -0.061429 0.000000 
-0.397378 -0.045724 0.000000 
-0.399634 -0.017099 0.000000 
-0.399739 0.014444 0.000000 
-0.397603 0.043724 0.000000 
-0.395477 0.059982 0.000000 
-0.388196 0.073559 0.000000 
-0.396330 0.087941 0.000000 
-0.389611 0.101316 0.000000 
-0.398256 0.115381 0.000000 
-0.391322 0.129801 0.000000 
-0.399939 0.142942 0.000000 
-0.393024 0.156393 0.000000 
-0.400855 0.169532 0.000000 
-0.391311 0.182810 0.000000 
-0.398813 0.196084 0.000000 
-0.390558 0.208887 0.000000 
-0.399012 0.222773 0.000000 
-0.391222 0.235614 0.000000 
-0.399599 0.249683 0.000000 
-0.391458 0.262407 0.000000 
-0.399353 0.276717 0.000000 
-0.390563 0.289558 0.000000 
-0.396906 0.304081 0.000000 
-0.388036 -0.315323 0.000000 
-0.383553 -0.301115 0.000000 
-0.377568 -0.285236 0.000000 
-0.385349 -0.272476 0.000000 
-0.376579 -0.258770 0.000000 
-0.384798 -0.246315 0.000000 
-0.376222 -0.232880 0.000000 
-0.384054 -0.219801 0.000000 
-0.375473 -0.205907 0.000000 
-0.382590 -0.192166 0.000000 
-0.373871 -0.177906 0.000000 
-0.380418 -0.163477 0.000000 
-0.370704 -0.150261 0.000000 
-0.376136 -0.136094 0.000000 
-0.381443 -0.120422 0.000000 
-0.374686 0.069170 0.000000 
-0.380113 0.086544 0.000000 
-0.375593 0.104030 0.000000 
-0.383053 0.117212 0.000000 
-0.374929 0.132070 0.000000 
-0.383660 0.143135 0.000000 
-0.377892 0.155860 0.000000 
-0.384664 0.169760 0.000000 
-0.374286 0.180719 0.000000 
-0.382259 0.194976 0.000000 
-0.374244 0.207767 0.000000 
-0.382689 0.221755 0.000000 
-0.374782 0.234702 0.000000 
-0.383271 0.248335 0.000000 
-0.375098 0.260796 0.000000 
-0.383306 0.275131 0.000000 
-0.374784 0.288094 0.000000 
-0.381142 0.302479 0.000000 
-0.386889 0.316729 0.000000 
-0.368020 -0.338469 0.000000 
-0.378306 -0.326932 0.000000 
-0.370472 -0.312389 0.000000 
-0.369761 -0.297937 0.000000 
-0.361703 -0.284504 0.000000 
-0.369129 -0.271360 0.000000 
-0.359550 -0.258053 0.000000 
-0.367952 -0.245605 0.000000 
-0.359569 -0.232432 0.000000 
-0.367795 -0.219340 0.000000 
-0.359467 -0.205636 0.000000 
-0.366918 -0.191961 0.000000 
-0.358010 -0.178407 0.000000 
-0.364611 -0.164496 0.000000 
-0.363732 0.078896 0.000000 
-0.367004 0.092719 0.000000 
-0.359449 0.105802 0.000000 
-0.367740 0.118851 0.000000 
-0.360093 0.134358 0.000000 
-0.366460 0.147540 0.000000 
-0.355310 0.168020 0.000000 
-0.368634 0.164995 0.000000 
-0.358404 0.177613 0.000000 
-0.366035 0.193234 0.000000 
-0.358406 0.206928 0.000000 
-0.366421 0.221046 0.000000 
-0.358162 0.234127 0.000000 
-0.366557 0.247366 0.000000 
-0.358206 0.259713 0.000000 
-0.367472 0.273298 0.000000 
-0.359450 0.285995 0.000000 
-0.365278 0.301100 0.000000 
-0.370161 0.314507 0.000000 
-0.376871 0.328585 0.000000 
-0.366608 0.339997 0.000000 
-0.356842 -0.350234 0.000000 
-0.352867 -0.336717 0.000000 
-0.361800 -0.324318 0.000000 
-0.352296 -0.313214 0.000000 
-0.356362 -0.299936 0.000000 
-0.347070 -0.285751 0.000000 
-0.353080 -0.270995 0.000000 
-0.342284 -0.257744 0.000000 
-0.350915 -0.245200 0.000000 
-0.342901 -0.232059 0.000000 
-0.351466 -0.218979 0.000000 
-0.343337 -0.205232 0.000000 
-0.350921 -0.191975 0.000000 
-0.359534 0.064247 0.000000 
-0.347453 0.074870 0.000000 
[...]
POINT_DATA 2441
SCALARS u float 1
LOOKUP_TABLE default
-43.539259
-41.180433
-37.835462
-8.866302
-7.262203
-111.829170
-1.735091
-7.710272
-0.931837
0.489325
-0.082076
0.261408
0.138926
-0.041653
-0.244668
-0.164752
0.567428
0.556414
-6.032645
0.528553
1.015770
0.096546
0.148879
0.926881
0.308581
0.182925
-1.902640
-4.755265
0.489731
0.211393
-0.450960
0.137493
-0.072603
-0.431555
-0.510510
-0.041245
-0.468523
-1.012836
-1.412386
-4.284521
-2.066461
-4.737418
-0.675613
-0.338668
0.702850
-0.073465
0.230706
-0.067427
-1.134697
-0.175984
0.359721
7.938528
-19.995928
1.136954
0.667273
-0.013382
0.646970
0.090988
-0.661153
-0.831336
-0.627062
-1.262601
-0.666255
-0.888987
-1.020988
-0.917313
-0.996166
-1.094428
-1.227567
-2.542217
-1.128939
0.432605
-0.001903
0.654486
0.628174
0.641540
0.432911
-0.797067
-1.379761
-10.772270
-22.828114
-31.751796
-14.500971
-1.600490
-1.607185
-1.138278
2.202673
1.677304
0.277217
0.069542
-0.921611
-1.290926
-1.306349
-1.034441
-1.733168
-0.925550
-1.739139
-1.161177
-1.299901
-1.178048
-1.054298
-1.078473
-0.743303
-1.211012
-1.369430
-0.180399
0.670480
0.471201
1.127138
0.868290
0.221371
-1.082190
-3.091085
-5.996467
-9.878261
-14.317279
-20.473160
-4.747545
-7.350005
-2.384623
-2.037314
-1.552178
-1.483555
3.161160
2.691066
0.753285
0.527664
-0.546306
-0.687348
-1.447572
-1.279492
-2.262255
-1.637174
-2.283370
-1.842205
-1.409786
-1.464414
-1.463286
-1.123364
-0.946032
-1.036045
-0.571739
-0.427729
-0.409014
-0.630373
0.428884
1.246522
1.784849
0.901173
0.087305
-2.084162
-4.104805
-5.612475
-9.482428
-13.899554
-11.858276
-9.489473
-6.254255
-3.212959
-2.598195
-1.917102
-1.961940
-1.523372
-1.560986
3.732319
3.549757
1.246940
0.992435
-0.265048
-0.432856
-1.491598
-1.418042
-2.115275
-2.196021
-2.483240
-2.215722
-1.969559
-2.123653
-1.290934
-1.558904
-0.857997
-0.887202
-0.538126
-0.200617
-0.466465
-0.120086
-0.406114
-0.129879
1.223562
0.053084
1.769922
1.078462
0.304287
-2.870271
-5.066695
-6.792564
-8.694805
-10.692504
-8.914783
-8.187699
-5.014205
-3.620911
-2.908841
-2.462578
-2.489427
-1.996852
-2.008844
-1.480669
-1.288142
3.825217
1.850729
1.509622
0.128823
-0.086820
-1.333303
-1.426484
-2.447244
-2.432503
-3.036751
-2.438513
-2.636060
-2.565808
-1.466401
-1.617571
-2.077477
-1.771215
-1.692128
-1.127234
-0.662771
-0.629117
0.137054
1.145780
2.456845
1.955190
-4.001669
-5.444569
-7.413274
-7.693757
-8.462841
-7.426245
-5.635386
-3.594290
-3.379870
-2.942276
-2.829527
-2.927183
-2.564936
-2.603546
-1.941582
-1.766187
-0.988282
3.861988
1.919885
0.528885
0.390022
-1.034274
-1.218599
-2.448478
-2.454999
-3.280816
-3.117049
-3.184625
-2.775331
-4.765897
-4.118346
-2.560968
0.145569
-3.552220
-6.193419
-7.068299
-7.639424
-6.012134
-4.378411
-3.752518
-2.772802
-2.913208
-2.814282
-3.028342
-3.132649
-3.019585
-3.082864
-2.570755
-2.428887
-1.567728
-0.678922
4.177192
4.347352
1.960942
1.155236
-0.097995
-0.795334
-2.200077
-2.436936
-3.583711
-3.447658
-3.972546
-3.605855
-6.874006
-6.037164
-5.776063
-3.545585
-4.887106
-6.196518
-6.252258
-7.186771
-1.812331
-0.511616
2.512061
-2.009382
-1.739002
-2.811015
-3.018470
-3.261195
-3.328241
-3.092601
-3.132435
-1.992215
-1.587398
-0.394577
0.496723
4.321473
1.954580
1.720983
1.229367
0.289341
-1.241333
-1.947966
-3.997410
-3.704997
-4.791460
-4.354622
-8.438020
-7.699207
-3.622395
-4.725783
-4.248044
-5.229857
-5.768364
-5.805405
-5.165817
-4.481750
1.011330
-0.829916
-2.098049
-2.503955
-3.273889
-3.461852
-3.451289
-3.180754
-2.951333
-2.295713
-1.136684
-0.715905
0.582339
4.274440
4.768287
1.711383
1.666084
0.432635
-0.421435
-2.689773
-2.858472
-5.612927
-4.556857
-9.603336
-8.978495
-5.266410
-4.684487
-4.861112
-5.098388
-5.511515
-5.481443
-5.358319
-5.977538
-2.031399
-3.191276
-2.827720
-3.499783
-3.320977
-3.852441
-3.392233
-2.332091
-1.517214
-1.027757
1.805149
1.572795
4.799493
1.175048
1.474933
0.454235
0.745644
-0.251308
-1.351778
-3.474568
-4.670923
-9.462719
-10.547526
-5.022175
-5.229843
-5.030463
-4.826369
-5.033932
-5.285105
-5.413591
-5.243028
-4.304005
-5.095231
-3.973454
-4.289829
-3.619706
-3.066143
-2.664386
-1.600697
-0.930626
-0.417657
2.155552
4.456175
2.019640
0.380550
0.304259
-1.199571
-0.510518
-0.964793
-2.645718
-5.454840
-6.028951
-4.763994
-5.026942
-4.995056
-4.974917
-5.116303
-5.148723
-5.402706
-6.295341
-3.567644
-4.479908
-4.145954
-4.101284
-2.605617
-2.539201
-1.315676
-0.932999
-0.078918
2.391982
8.311480
2.660387
0.165581
-2.786912
-1.477594
-3.111993
-2.371007
-2.038543
-3.676849
-8.628019
-9.311501
-4.892410
-4.985426
-5.028849
-5.063931
-5.218508
-5.422886
-5.457983
-6.155748
-6.002349
-7.230909
-4.763213
-4.557947
-3.775748
-3.425599
-2.215981
-2.011051
-0.085643
0.331640
3.048876
13.919315
8.022255
1.149844
-0.108681
-4.241036
-4.766367
-6.363389
-4.377798
-4.541241
-2.706303
-4.750779
-4.861071
-4.953046
-5.057420
-5.132081
-5.306594
-5.386394
-6.067741
-6.131157
-8.307528
-5.123251
-4.644565
-4.787077
-3.361729
-2.630594
-1.222803
-0.675043
2.032202
2.891318
14.728593
4.337438
1.124007
-3.568619
-7.233306
-7.236980
-9.069722
-7.091849
-6.173546
4.418808
8.522745
-4.483499
-4.879417
-4.961725
-5.104932
-5.182587
-5.376477
-5.446713
-5.962999
-9.278446
-5.217859
-5.501075
-3.975995
-3.523905
-1.748001
-1.059505
0.326383
2.064133
19.725039
6.273906
3.220900
-2.192778
-4.632784
-9.322926
-10.088303
-11.007457
-8.871356
-6.613844
-1.708910
3.321980
12.516602
12.724536
-4.317151
-4.393735
-4.901867
-5.034694
-5.175683
-5.280185
-5.395012
-5.452360
-5.895885
-10.624468
-5.978570
-5.813343
-4.439417
-2.654360
-1.379883
0.027831
0.435046
2.054460
14.864477
13.760140
7.069983
3.462420
-2.380050
-6.930337
-11.888979
-11.993445
-12.534073
-10.223461
-5.731303
0.218676
3.296241
6.240056
6.659600
12.148739
10.958250
-4.337451
-4.794684
-4.873628
-5.068014
-5.220396
-5.282448
-5.580652
-5.847807
-10.125627
-11.101541
-5.567075
-4.598973
-3.064811
-2.354787
-0.576444
-0.004863
1.545061
1.714507
13.787958
10.095684
4.649832
1.144787
-3.364481
-7.672126
-13.689841
-13.487763
-13.535918
-10.903571
-5.106445
-1.162121
2.076258
4.813246
5.706899
6.328257
5.837288
9.244538
7.271136
-4.107356
-4.734233
-5.137156
-5.135560
-5.318981
-5.378168
-5.474722
-5.848950
-10.655271
-6.145280
-4.011402
-2.682995
-1.489078
-1.391834
0.365304
1.385238
16.146509
6.487148
7.375152
3.209497
0.922145
-2.898815
-8.567913
-14.372266
-15.052061
-26.016597
-9.602520
-3.344823
-1.236565
1.118998
3.576920
4.172683
5.663807
5.616242
4.921783
3.462610
-4.842698
-4.901894
-5.070165
-5.243834
-5.371028
-5.449733
-5.507947
-5.755986
-8.975301
-6.505956
-5.911436
-3.948777
-2.399582
-1.679113
-0.833938
-0.833568
1.869539
11.334522
5.117333
5.687104
2.369114
-0.630710
-7.953815
-8.005538
-35.128498
-12.138865
-4.689823
-2.448410
-1.341039
1.803039
2.157230
4.160055
4.172731
5.440362
4.137418
5.637489
4.438401
-4.021652
-4.753066
-4.990712
-5.246674
-5.331861
-5.452059
-5.461351
-5.766247
-9.745888
-4.950675
-4.944431
-3.095138
-2.380606
-1.359066
-1.038925
0.876505
6.480108
3.424837
3.813440
2.531482
0.829806
-2.213007
-8.663018
-14.615274
-36.855545
-12.272038
-13.916105
-4.949073
-4.659798
-0.648312
-0.124525
2.331349
2.177974
3.895406
4.148881
3.085738
2.614072
2.984036
1.568629
-3.792512
-4.802437
-4.827256
-5.372861
-5.434025
-5.527437
-5.485012
-5.656466
-10.373825
-5.813454
-4.776639
-3.515724
-2.541254
-1.858840
-1.432928
-1.454127
-0.223860
-0.657306
0.237327
1.094761
2.256455
0.397948
-3.251593
-8.290695
-24.367066
-10.080255
-7.888042
-3.609053
-2.727110
0.892150
1.188921
3.360287
2.992979
3.961586
3.102080
1.738002
1.037217
0.047758
-1.401220
-5.657223
-4.118586
-4.878212
-5.052810
-5.242833
-5.623033
-5.776699
-5.694882
-8.781409
-4.948614
-3.595569
-2.732669
-2.048296
-2.153760
-2.039921
-1.342623
-4.233702
-4.102138
-0.700660
1.070955
-0.098629
-2.943483
-4.668122
-13.257467
-6.462105
-5.036829
-2.175251
-0.758170
2.423308
3.314745
3.773379
3.522257
2.878331
2.366574
0.385927
-0.473062
-2.958970
-5.993901
-4.366822
-4.936728
-4.889014
-5.301296
-5.540541
-5.944715
-5.879000
-7.251389
-4.144859
-3.726357
-2.929080
-2.443511
-2.634853
-2.922016
-1.937413
-13.775371
-10.771310
-4.628488
-1.625712
1.238063
0.878574
-0.387604
-3.249847
-3.680153
-2.294251
0.723702
1.695052
3.147188
3.350634
3.324861
3.204252
1.929958
1.240458
-1.318366
-4.743793
-2.597626
-4.178132
-4.242862
-4.862749
-5.562653
-6.042705
-4.927104
-7.524117
-5.263246
-3.131053
-2.965244
-2.449218
-2.942868
-3.226239
-4.305038
-3.732344
-14.090384
-16.826979
-6.317183
-3.107902
-0.050474
4.024461
-0.739550
7.645584
-0.748410
0.243093
2.409583
2.810022
3.483469
3.663722
2.986724
3.182958
0.269626
-1.123390
-7.427963
-9.463774
-4.130774
-3.297554
-1.178417
-5.361390
-3.946169
-4.264156
-3.801544
-4.622479
-4.691625
-6.556430
-11.514734
-2.577062
-3.364744
-2.566753
-2.750091
-3.522336
-3.462498
-5.385185
-3.711345
-27.654565
-12.643600
-5.562374
-2.282537
2.096048
4.859695
5.430099
19.370868
-0.852395
0.670463
1.129825
1.755767
3.334858
3.380083
4.006327
3.033451
1.930301
0.876928
-1.650006
-3.319452
-8.594944
-2.742687
-0.073514
-2.387773
-2.464984
-2.422174
-3.561363
-3.744961
-4.247606
-5.245370
-6.562074
-12.214106
1.768878
-2.004254
-1.894536
-2.296454
-3.735646
-4.148925
-5.164102
-5.796370
-30.963017
-14.904424
-17.165943
-7.353792
-0.821717
4.466013
11.151761
8.094929
2.076497
3.568052
2.445939
3.555007
3.983157
4.451563
3.197980
0.502777
-1.235200
-2.740148
-4.426495
-3.618724
-2.437073
-3.386426
-2.851808
-3.096225
-3.600057
-3.964263
-4.277919
-5.162791
-5.568027
-6.574204
-7.663180
-1.957931
-0.493704
-2.512247
-3.509258
-4.545443
-6.417501
-5.364304
-5.716766
-37.664357
-23.382348
-18.720603
-7.884976
-0.354055
3.841810
17.709776
33.823176
4.990452
6.955045
3.698509
5.138716
3.582102
1.924276
-0.333447
-1.664990
-3.243368
-3.606738
-3.253290
-3.598046
-3.321099
-3.758382
-3.765087
-4.199037
-4.505573
-4.791402
-5.877186
-5.363426
-7.123276
-4.459538
7.653456
0.227365
-3.410340
-4.026535
-5.266629
-7.046320
-6.906625
-5.577995
-42.966126
-29.157832
-21.957301
-9.896437
1.194639
11.302716
20.065268
50.917964
10.357642
3.723890
7.243954
4.088105
0.852303
-0.839923
-2.630655
-3.380117
-3.738488
-4.004681
-3.851687
-4.198282
-4.115629
-4.385035
-4.487520
-4.568316
-4.726838
-4.163665
-4.223663
-3.317202
-2.741894
-1.308695
-0.143216
-0.080206
-0.070775
-0.075031
-0.070291
0.003455
0.497549
0.442698
5.185664
8.788879
0.081897
-1.720048
-3.769938
-5.794061
-7.925505
-8.608889
-4.560640
-43.692158
-36.837006
-23.940556
-8.966969
3.466926
14.955767
26.867244
64.518958
16.355844
8.805244
6.207855
1.953900
-0.040450
-2.175934
-3.190905
-3.891035
-4.268749
-4.256940
-4.510119
-4.411619
-4.544487
-4.504938
-4.450563
-4.319819
-3.996867
-3.628308
-2.829361
-2.385682
-0.996547
-2.792798
-0.043110
-0.181010
0.022561
-0.149681
0.029609
-0.114519
0.022731
-0.102384
0.017652
-0.093559
0.010159
-0.054979
-0.024793
0.116571
-0.329229
1.126610
0.993900
0.740311
2.159206
2.780008
1.122851
-0.984976
-2.764580
-5.364552
-8.814181
-11.713055
-3.086140
-74.185987
-42.149439
-17.934377
-9.410613
5.012042
16.765616
30.838473
76.666960
24.320853
9.553682
3.157167
0.589363
-1.750328
-3.008673
-3.913717
-4.386134
-4.523413
-4.690918
-4.625879
-4.649787
-4.549337
-4.445940
-4.256378
-4.009681
-3.807020
-3.004623
-2.566010
-1.160634
-0.812693
-0.532291
-0.168486
-0.076609
-0.025626
0.012683
-0.004285
0.013932
-0.012253
-0.002164
-0.022681
-0.011327
-0.019578
0.034436
0.151181
0.255147
0.553355
0.787586
1.669656
2.411785
2.824055
1.540357
-0.172968
-1.398358
-5.103659
-4.842571
-13.602793
-20.624170
-49.854058
-30.814273
-18.461008
-5.996101
6.693389
18.995106
32.670668
85.103121
31.194840
9.299331
4.553602
1.408690
-1.330954
-2.893591
-3.894502
-4.400707
-4.636828
-4.733258
-4.727175
-4.695180
-4.598491
-4.497460
-4.282141
-4.024771
-3.593375
-2.921583
-2.143486
-1.375560
-1.026515
-0.629989
-0.286760
-0.138961
-0.020443
0.004570
0.024208
0.012954
0.009077
-0.008848
-0.011365
-0.019756
0.002813
0.049703
0.195709
0.323557
0.763462
1.068842
1.657124
2.347213
2.726049
1.978265
0.683074
-0.277181
-1.784266
-5.242703
-8.730553
-18.002490
-93.206362
-38.725872
-26.238821
-5.677708
5.126452
19.071850
32.085718
87.351341
31.718781
9.292258
4.508124
1.057666
-1.275420
-2.998811
-3.876458
-4.329928
-4.610622
-4.639633
-4.717237
-4.654027
-4.622768
-4.520039
-4.335592
-4.057466
-3.535341
-2.891323
-2.058619
-1.322465
-1.009466
-0.525994
-0.301762
-0.107284
-0.024064
0.006980
0.026578
0.011608
0.008762
-0.007647
-0.015671
-0.015426
0.000269
0.040104
0.165007
0.248538
0.589288
0.890137
1.669145
2.089036
2.757046
1.904806
0.820770
-1.332112
-2.052360
-9.670267
-11.313964
-30.202039
-62.448566
-35.830781
-23.955125
-10.462684
3.104444
17.652747
29.601384
83.086398
30.879375
8.693288
4.587875
-0.123517
-1.774013
-3.229141
-3.860869
-4.156097
-4.447688
-4.393635
-4.578642
-4.514453
-4.583813
-4.535986
-4.391688
-4.230865
-3.506305
-3.142523
-1.811923
-1.339099
-0.801269
-0.324391
-0.182398
-0.051301
0.001673
-0.008051
0.025099
-0.010513
0.010248
-0.019800
-0.006655
-0.024450
-0.002197
-0.008653
0.076047
0.068909
0.360073
0.477661
1.358975
1.747653
3.151553
1.003754
-0.104084
-2.920973
-5.831125
-7.852804
-9.352457
-12.863891
-47.494549
-36.492180
-23.413185
-10.862756
1.922767
15.359425
25.629803
73.061767
17.231572
26.480697
7.194121
2.458202
-0.967590
-2.457786
-3.421717
-3.786612
-3.839932
-4.124747
-3.974810
-4.305149
-4.308714
-4.519390
-4.607669
-4.518459
-4.434454
-3.443526
-2.354409
-1.513145
-2.755140
-0.254902
-0.483562
0.023335
-0.223158
0.040009
-0.160770
0.031790
-0.142139
0.024869
-0.138319
0.019026
-0.135259
0.013018
-0.112276
0.009131
-0.022145
0.031603
0.347318
0.603038
2.799244
3.525092
0.743162
-0.944944
-3.760902
-5.719611
-7.865848
-10.499286
-6.505023
-41.152207
-30.099749
-20.833748
-11.402445
-0.111107
13.313403
18.762030
60.108091
7.730966
11.586506
4.934210
8.053220
4.431672
1.584738
-2.172760
-3.221703
-3.486379
-3.569616
-3.305683
-3.595038
-3.374962
-3.912862
-4.080857
-4.490256
-4.870315
-4.839348
-5.433090
-3.692073
-6.579929
-3.951211
-0.325391
-0.206760
-0.129609
-0.106953
-0.106968
-0.111873
-0.106413
-0.057951
0.135851
0.573708
5.876057
1.038159
-1.819768
-4.316899
-6.002084
-6.964689
-8.276974
-5.955675
-34.732078
-24.288896
-17.028711
-10.520514
-0.371209
10.271943
16.117140
46.438906
3.893590
5.608748
3.564927
4.435948
4.478445
5.565292
2.818349
0.904007
-3.105132
-4.480582
-3.079012
-3.238385
-2.354186
-2.827088
-2.645860
-3.437501
-3.876369
-4.481172
-5.150486
-5.332028
-6.068568
-4.059963
8.073513
-2.263206
-2.089912
-3.770618
-5.555483
-5.747489
-6.680550
-5.604001
-19.509654
-10.207387
-9.315131
-0.806884
4.095282
10.443205
30.595035
2.262337
1.877912
2.768901
3.639030
4.127035
3.828090
3.736886
1.556077
0.117794
-2.754115
-6.983109
-3.596365
-2.707472
-0.320916
-1.871577
-2.222930
-3.087210
-3.766176
-4.467579
-5.183221
-6.498782
-12.415457
-6.195284
2.544246
-1.227852
-3.401190
-3.394606
-5.018545
-4.305312
-5.717450
-28.510594
-17.584194
-6.863775
-0.479431
4.781278
5.112864
7.002428
17.185597
0.921242
0.824327
2.777770
3.306099
3.359884
3.618251
2.713378
2.663326
1.145297
-0.895309
-4.534626
-9.560230
-3.236734
0.412822
-0.920594
-2.033577
-2.265013
-3.012457
-3.915385
-4.502655
-5.547881
-7.052462
-13.309803
-2.295515
-2.439403
-2.760701
-2.393907
-3.289610
-4.005165
-4.988710
-4.812203
-22.162590
-11.126423
-11.944282
-2.031198
2.669281
2.779718
4.623929
6.929494
-1.377805
-0.214385
0.724143
1.828617
3.130846
3.186867
2.768679
2.675916
1.146887
0.818596
-2.706359
-2.393860
-10.491509
-3.261322
-2.198166
-2.055258
-3.216656
-2.997646
-3.979504
-4.739592
-5.815528
-6.779641
-7.134605
-5.122429
-3.028096
-3.267932
-2.696502
-2.821834
-4.223529
-3.376447
-3.794135
-15.337712
-6.555432
-8.279443
-1.832594
0.408617
1.497752
-0.946178
-1.894879
-3.768608
-2.556054
-0.737210
-0.175971
2.041319
2.738947
2.803934
2.813133
2.043748
1.598628
-0.558010
-1.326860
-3.478759
-4.859664
-3.193085
-3.513120
-4.322252
-4.782575
-5.615409
-6.569333
-6.708836
-9.109868
-7.114583
-4.259941
-2.955614
-2.605486
-2.572824
-3.550231
-2.798134
-2.764736
-11.229839
-4.485148
-0.613037
0.646745
-1.079291
-0.261187
-4.721012
-5.873712
-5.967450
-4.909078
-2.046565
-1.374127
1.043507
1.635311
2.517701
2.867135
3.062044
2.557967
0.682447
0.056691
-1.748964
-2.974389
-3.434833
-3.287395
-3.864121
-4.735318
-5.136795
-6.522770
-6.414810
-8.239690
-8.326300
-4.754648
-3.540323
-3.019323
-2.642183
-2.366774
-2.288976
-1.727184
-0.607410
-6.532641
0.934283
2.049056
0.574117
-2.524623
-7.410025
-10.698570
-3.598708
-2.754603
0.121019
0.612376
2.395041
2.526021
3.343958
3.228951
2.453763
1.409406
0.754510
-0.500485
-1.853842
-3.590297
-4.228397
-4.637337
-5.382391
-5.832052
-5.698778
-7.359271
-7.032383
-10.069084
-4.961716
-3.973414
-2.713158
-2.209939
-1.279338
-2.480457
-0.003768
1.303008
-1.814498
1.213020
1.578670
0.074245
-6.304339
-5.440421
-14.574015
-1.730740
-8.057743
-7.001811
-0.968883
-0.445220
2.079504
2.222443
3.703421
3.451989
3.819219
3.433723
1.591090
1.884241
-1.908254
-3.661926
-4.462503
-5.060574
-5.708595
-5.884582
-6.321292
-6.909126
-10.353686
-5.840302
-5.241557
-4.081028
-2.514218
-1.773362
-1.022524
-1.607113
10.315591
3.588665
5.693980
3.184710
-0.567330
-4.377294
-17.407571
-25.714348
-9.109055
-8.047141
-5.258336
-4.328058
0.380479
1.343719
4.096571
3.851992
4.588712
4.077495
3.477619
2.659239
3.251193
-2.459189
-4.258437
-4.361229
-4.818673
-5.390544
-5.780369
-5.980303
-7.020746
-12.102055
-5.937656
-4.649718
-3.603163
-1.388004
-1.617919
-0.704058
0.858179
13.163368
19.110617
7.238589
5.148483
1.144890
0.660055
-6.268164
-12.442704
-38.436009
-5.257675
-5.158676
-1.398356
-0.746070
3.009991
4.924885
5.082555
5.244024
4.829240
4.132481
6.333699
4.840505
-2.975759
-2.840540
-4.408084
-4.955526
-5.318355
-5.579329
-5.900760
-5.824059
-6.796176
-12.165544
-6.546351
-6.271694
-3.916345
-2.768142
-1.760852
-1.136862
2.317681
1.974572
20.047040
6.477627
5.076555
3.812645
-3.451654
-10.896403
-10.605659
-26.897552
-10.766041
-7.391949
-3.289369
0.898749
3.873288
4.808986
6.457643
5.435654
9.229481
7.730377
-3.386263
-3.987382
-4.546682
-5.108870
-5.329080
-5.826911
-5.795223
-6.571380
-11.567777
-11.311315
-5.150907
-3.747008
-2.810226
-1.960661
0.095730
-0.221662
3.369933
8.535959
4.357379
1.679479
-2.049296
-7.989523
-12.012276
-20.085788
-11.093218
-7.505833
-3.914859
-0.343323
5.755619
5.691433
11.357403
10.498374
-3.368125
-4.314254
-4.481380
-4.934532
-5.204899
-5.390544
-5.579738
-6.398256
-6.164183
-5.741846
-4.064638
-4.357706
-1.777166
-1.045389
-0.113634
3.939459
22.884666
22.011646
2.538203
-1.658231
-5.663926
-10.445382
-14.514067
-10.411481
-7.476774
-3.982747
1.816282
5.764679
10.982165
-3.668310
-4.490946
-4.931726
-5.109214
-5.405659
-5.432584
-5.590380
-6.258802
-10.793737
-10.506482
-5.683946
-6.081618
-3.567843
-2.771694
-1.416064
-0.348257
0.200014
3.427950
15.389852
5.902998
4.371984
-5.364429
-6.453624
-10.492274
-8.588475
-7.223323
-4.192204
4.829186
6.791731
-3.860877
-4.603597
-4.875777
-5.001726
-5.205130
-5.338287
-5.579170
-6.121300
-9.424581
-5.210471
-5.112236
-4.087021
-2.724085
-1.916685
-0.542617
-0.967287
4.010444
11.230805
1.415865
-1.560206
-4.630506
-7.308238
-5.157042
-6.031877
-2.077061
3.925443
-6.948110
-4.352291
-4.730300
-4.834226
-4.981248
-5.139350
-5.265666
-5.449287
-6.145578
-7.038326
-8.304304
-5.189898
-4.752113
-3.718353
-3.452681
-1.990014
-1.336142
0.320839
3.602628
7.911760
8.733289
0.330889
-0.984449
-3.164133
-2.451257
-3.142653
-0.682493
-0.356195
-6.677662
-4.645285
-4.924221
-5.003249
-5.117294
-5.171453
-5.284983
-5.198078
-6.060389
-4.028514
-4.977558
-4.357382
-4.302401
-2.559158
-2.305733
-0.981241
0.085722
2.498127
2.844029
3.927606
1.230402
0.362537
-0.642270
-0.564278
-1.057559
-0.101194
-0.413982
-4.510618
-7.764777
-10.276050
-5.081883
-4.946102
-5.115419
-5.018901
-5.038230
-5.293156
-4.992784
-5.933831
-5.336203
-6.087642
-4.364144
-4.636107
-3.660090
-3.247967
-2.482351
-1.350471